
Host: germain

Timers On : Fri Sep 27 23:21:36 2024
Timers Off: Fri Sep 27 23:21:36 2024

Wall Time:        0.06 seconds

                                                       Time (seconds)
Module                                       User      System        Wall        Calls

--------------------------------------------------------------------------------------

**************************************************************************************

Host: germain

Timers On : Fri Sep 27 23:22:38 2024
Timers Off: Fri Sep 27 23:22:38 2024

Wall Time:        0.39 seconds

                                                       Time (seconds)
Module                                       User      System        Wall        Calls

--------------------------------------------------------------------------------------

**************************************************************************************

Host: germain

Timers On : Fri Sep 27 23:24:35 2024
Timers Off: Fri Sep 27 23:24:36 2024

Wall Time:        0.31 seconds

                                                       Time (seconds)
Module                                       User      System        Wall        Calls

--------------------------------------------------------------------------------------

**************************************************************************************

Host: germain

Timers On : Sat Sep 28 00:25:51 2024
Timers Off: Sat Sep 28 00:25:52 2024

Wall Time:        0.34 seconds

                                                       Time (seconds)
Module                                       User      System        Wall        Calls

--------------------------------------------------------------------------------------

**************************************************************************************

Host: germain

Timers On : Sat Sep 28 00:25:51 2024
Timers Off: Sat Sep 28 00:26:29 2024

Wall Time:       38.28 seconds

                                                       Time (seconds)
Module                                       User      System        Wall        Calls
V: Grid                             :      0.717u      0.050s      0.438w      4 calls
build grid                          :      0.550u      0.033s      0.345w      4 calls
post-process grid                   :      0.167u      0.017s      0.092w      4 calls
DFH: sparsity prep                  :      0.100u      0.033s      0.103w      4 calls
Libint2ERI::Libint2ERI              :      0.167u      0.050s      0.127w     12 calls
DFH: initialize()                   :      3.133u      0.283s      2.070w      4 calls
Libint2ErfERI::Libint2ErfERI        :      0.083u      0.000s      0.054w      4 calls
DFH: AO Construction                :      0.667u      0.017s      0.414w      4 calls
DFH: AO-Met. Contraction            :      1.150u      0.000s      0.692w      8 calls
DFH: wAO Construction               :      0.650u      0.000s      0.397w      4 calls
DFH: wAO Copy                       :      0.100u      0.017s      0.082w      4 calls
HF: Form core H                     :      0.000u      0.000s      0.019w      4 calls
HF: Form S/X                        :      0.067u      0.017s      0.021w      4 calls
HF: Guess                           :      0.217u      0.033s      0.159w      4 calls
SAD Guess                           :      0.217u      0.033s      0.154w      4 calls
HF: Form G                          :     46.483u      1.500s     28.919w     32 calls
RV: Form V                          :     41.750u      1.067s     25.874w     32 calls
Properties                          :     18.817u      0.583s     11.606w  34552 calls
Functional                          :      4.567u      0.033s      2.666w  34552 calls
V_xc                                :     18.150u      0.417s     11.519w  34552 calls
JK: D                               :      0.000u      0.000s      0.002w     32 calls
JK: USO2AO                          :      0.000u      0.000s      0.000w     32 calls
JK: JK                              :      4.733u      0.433s      3.036w     32 calls
DFH: compute_JK()                   :      1.967u      0.200s      1.248w     32 calls
DFH: Grabbing AOs                   :      0.000u      0.000s      0.000w     32 calls
DFH: compute_J                      :      0.367u      0.150s      0.305w     32 calls
DFH: compute_K                      :      1.533u      0.000s      0.903w     32 calls
DFH: compute_wK()                   :      2.767u      0.233s      1.785w     32 calls
JK: AO2USO                          :      0.000u      0.000s      0.000w     32 calls
HF: Form F                          :      0.000u      0.000s      0.003w     32 calls
HF: Form D                          :      0.000u      0.000s      0.001w     32 calls
HF: DIIS                            :      0.200u      0.083s      0.162w     28 calls
HF: Form C                          :      0.167u      0.000s      0.117w     28 calls

--------------------------------------------------------------------------------------
V: Grid                             :      0.717u      0.050s      0.438w      4 calls
| build grid                        :      0.550u      0.033s      0.345w      4 calls
| post-process grid                 :      0.167u      0.017s      0.092w      4 calls
DFH: sparsity prep                  :      0.100u      0.033s      0.103w      4 calls
| Libint2ERI::Libint2ERI            :      0.083u      0.033s      0.074w      4 calls
DFH: initialize()                   :      3.133u      0.283s      2.070w      4 calls
| Libint2ERI::Libint2ERI            :      0.083u      0.017s      0.054w      8 calls
| Libint2ErfERI::Libint2ErfERI      :      0.083u      0.000s      0.054w      4 calls
| DFH: AO Construction              :      0.667u      0.017s      0.414w      4 calls
| DFH: AO-Met. Contraction          :      1.150u      0.000s      0.692w      8 calls
| DFH: wAO Construction             :      0.650u      0.000s      0.397w      4 calls
| DFH: wAO Copy                     :      0.100u      0.017s      0.082w      4 calls
HF: Form core H                     :      0.000u      0.000s      0.019w      4 calls
HF: Form S/X                        :      0.067u      0.017s      0.021w      4 calls
HF: Guess                           :      0.217u      0.033s      0.159w      4 calls
| SAD Guess                         :      0.217u      0.033s      0.154w      4 calls
HF: Form G                          :     46.483u      1.500s     28.919w     32 calls
| RV: Form V                        :     41.750u      1.067s     25.874w     32 calls
| | Properties                      :     18.817u      0.583s     11.606w  34552 calls
| | Functional                      :      4.567u      0.033s      2.666w  34552 calls
| | V_xc                            :     18.150u      0.417s     11.519w  34552 calls
| JK: D                             :      0.000u      0.000s      0.002w     32 calls
| JK: USO2AO                        :      0.000u      0.000s      0.000w     32 calls
| JK: JK                            :      4.733u      0.433s      3.036w     32 calls
| | DFH: compute_JK()               :      1.967u      0.200s      1.248w     32 calls
| | | DFH: Grabbing AOs             :      0.000u      0.000s      0.000w     32 calls
| | | DFH: compute_J                :      0.367u      0.150s      0.305w     32 calls
| | | DFH: compute_K                :      1.533u      0.000s      0.903w     32 calls
| | DFH: compute_wK()               :      2.767u      0.233s      1.785w     32 calls
| JK: AO2USO                        :      0.000u      0.000s      0.000w     32 calls
HF: Form F                          :      0.000u      0.000s      0.003w     32 calls
HF: Form D                          :      0.000u      0.000s      0.001w     32 calls
HF: DIIS                            :      0.200u      0.083s      0.162w     28 calls
HF: Form C                          :      0.167u      0.000s      0.117w     28 calls

**************************************************************************************

Host: germain

Timers On : Sat Sep 28 01:10:38 2024
Timers Off: Sat Sep 28 01:10:38 2024

Wall Time:        0.36 seconds

                                                       Time (seconds)
Module                                       User      System        Wall        Calls

--------------------------------------------------------------------------------------

**************************************************************************************

Host: germain

Timers On : Sat Sep 28 01:10:37 2024
Timers Off: Sat Sep 28 01:11:33 2024

Wall Time:       56.31 seconds

                                                       Time (seconds)
Module                                       User      System        Wall        Calls
V: Grid                             :      1.467u      0.017s      0.906w      4 calls
build grid                          :      1.250u      0.000s      0.761w      4 calls
post-process grid                   :      0.217u      0.017s      0.144w      4 calls
DFH: sparsity prep                  :      0.117u      0.000s      0.091w      4 calls
Libint2ERI::Libint2ERI              :      0.117u      0.000s      0.108w     12 calls
DFH: initialize()                   :      2.550u      0.250s      1.694w      4 calls
Libint2ErfERI::Libint2ErfERI        :      0.083u      0.000s      0.045w      4 calls
DFH: AO Construction                :      0.583u      0.050s      0.385w      6 calls
DFH: AO-Met. Contraction            :      0.850u      0.000s      0.500w     12 calls
DFH: wAO Construction               :      0.633u      0.000s      0.392w      6 calls
DFH: wAO Copy                       :      0.100u      0.000s      0.062w      6 calls
HF: Form core H                     :      0.033u      0.000s      0.026w      4 calls
HF: Form S/X                        :      0.033u      0.000s      0.020w      4 calls
HF: Guess                           :      0.283u      0.067s      0.188w      4 calls
SAD Guess                           :      0.283u      0.067s      0.184w      4 calls
HF: Form G                          :     76.350u      0.767s     46.384w     32 calls
RV: Form V                          :     73.383u      0.617s     44.472w     32 calls
Properties                          :     36.967u      0.300s     22.009w  44888 calls
Functional                          :      5.417u      0.100s      3.411w  44888 calls
V_xc                                :     30.767u      0.200s     18.940w  44888 calls
JK: D                               :      0.000u      0.000s      0.002w     32 calls
JK: USO2AO                          :      0.000u      0.000s      0.000w     32 calls
JK: JK                              :      2.933u      0.150s      1.904w     32 calls
DFH: compute_JK()                   :      1.200u      0.017s      0.778w     32 calls
DFH: Grabbing AOs                   :      0.000u      0.000s      0.000w     32 calls
DFH: compute_J                      :      0.300u      0.017s      0.220w     32 calls
DFH: compute_K                      :      0.867u      0.000s      0.540w     32 calls
DFH: compute_wK()                   :      1.733u      0.133s      1.123w     32 calls
JK: AO2USO                          :      0.000u      0.000s      0.000w     32 calls
HF: Form F                          :      0.000u      0.000s      0.002w     32 calls
HF: Form D                          :      0.000u      0.000s      0.001w     32 calls
HF: DIIS                            :      0.200u      0.033s      0.190w     28 calls
HF: Form C                          :      0.217u      0.000s      0.125w     28 calls

--------------------------------------------------------------------------------------
V: Grid                             :      1.467u      0.017s      0.906w      4 calls
| build grid                        :      1.250u      0.000s      0.761w      4 calls
| post-process grid                 :      0.217u      0.017s      0.144w      4 calls
DFH: sparsity prep                  :      0.117u      0.000s      0.091w      4 calls
| Libint2ERI::Libint2ERI            :      0.067u      0.000s      0.066w      4 calls
DFH: initialize()                   :      2.550u      0.250s      1.694w      4 calls
| Libint2ERI::Libint2ERI            :      0.050u      0.000s      0.042w      8 calls
| Libint2ErfERI::Libint2ErfERI      :      0.083u      0.000s      0.045w      4 calls
| DFH: AO Construction              :      0.583u      0.050s      0.385w      6 calls
| DFH: AO-Met. Contraction          :      0.850u      0.000s      0.500w     12 calls
| DFH: wAO Construction             :      0.633u      0.000s      0.392w      6 calls
| DFH: wAO Copy                     :      0.100u      0.000s      0.062w      6 calls
HF: Form core H                     :      0.033u      0.000s      0.026w      4 calls
HF: Form S/X                        :      0.033u      0.000s      0.020w      4 calls
HF: Guess                           :      0.283u      0.067s      0.188w      4 calls
| SAD Guess                         :      0.283u      0.067s      0.184w      4 calls
HF: Form G                          :     76.350u      0.767s     46.384w     32 calls
| RV: Form V                        :     73.383u      0.617s     44.472w     32 calls
| | Properties                      :     36.967u      0.300s     22.009w  44888 calls
| | Functional                      :      5.417u      0.100s      3.411w  44888 calls
| | V_xc                            :     30.767u      0.200s     18.940w  44888 calls
| JK: D                             :      0.000u      0.000s      0.002w     32 calls
| JK: USO2AO                        :      0.000u      0.000s      0.000w     32 calls
| JK: JK                            :      2.933u      0.150s      1.904w     32 calls
| | DFH: compute_JK()               :      1.200u      0.017s      0.778w     32 calls
| | | DFH: Grabbing AOs             :      0.000u      0.000s      0.000w     32 calls
| | | DFH: compute_J                :      0.300u      0.017s      0.220w     32 calls
| | | DFH: compute_K                :      0.867u      0.000s      0.540w     32 calls
| | DFH: compute_wK()               :      1.733u      0.133s      1.123w     32 calls
| JK: AO2USO                        :      0.000u      0.000s      0.000w     32 calls
HF: Form F                          :      0.000u      0.000s      0.002w     32 calls
HF: Form D                          :      0.000u      0.000s      0.001w     32 calls
HF: DIIS                            :      0.200u      0.033s      0.190w     28 calls
HF: Form C                          :      0.217u      0.000s      0.125w     28 calls

**************************************************************************************

Host: germain

Timers On : Sat Sep 28 01:38:30 2024
Timers Off: Sat Sep 28 01:38:31 2024

Wall Time:        0.32 seconds

                                                       Time (seconds)
Module                                       User      System        Wall        Calls

--------------------------------------------------------------------------------------

**************************************************************************************

Host: germain

Timers On : Sat Sep 28 01:38:30 2024
Timers Off: Sat Sep 28 01:46:09 2024

Wall Time:      459.63 seconds

                                                       Time (seconds)
Module                                       User      System        Wall        Calls
V: Grid                             :      6.517u      0.050s      3.940w      4 calls
build grid                          :      6.017u      0.017s      3.620w      4 calls
post-process grid                   :      0.500u      0.033s      0.320w      4 calls
DFH: sparsity prep                  :      0.483u      0.067s      0.343w      4 calls
Libint2ERI::Libint2ERI              :      1.000u      0.067s      0.620w     20 calls
Libint2ErfERI::Libint2ErfERI        :      0.317u      0.000s      0.202w      4 calls
JK: (A|Q)^-1                        :      0.683u      1.467s      0.920w      4 calls
JK: (A|mn)                          :      6.767u      0.017s      4.097w      4 calls
JK: (Q|mn)                          :      5.667u      0.083s      3.472w      4 calls
JK: (Q|mn) Write                    :      0.017u      0.450s      0.271w      4 calls
JK: (A|mn)^L                        :      6.367u      0.067s      3.901w      4 calls
JK: (Q|mn)^L                        :      5.717u      0.083s      3.472w      4 calls
JK: (Q|mn)^L Write                  :      0.000u      0.483s      0.296w      4 calls
JK: (Q|mn)^R                        :      6.717u      0.000s      4.069w      4 calls
JK: (Q|mn)^R Write                  :      0.017u      1.117s      0.670w      4 calls
HF: Form core H                     :      0.183u      0.017s      0.107w      4 calls
HF: Form S/X                        :      0.200u      0.017s      0.116w      4 calls
HF: Guess                           :      0.350u      0.000s      0.234w      4 calls
SAD Guess                           :      0.350u      0.000s      0.228w      4 calls
HF: Form G                          :    679.467u     20.367s    421.684w     36 calls
RV: Form V                          :    616.233u      2.617s    372.787w     36 calls
Properties                          :    341.150u      1.783s    206.183w  80208 calls
Functional                          :     10.550u      0.050s      6.371w  80208 calls
V_xc                                :    263.817u      0.783s    159.939w  80208 calls
JK: D                               :      0.000u      0.017s      0.011w     36 calls
JK: USO2AO                          :      0.000u      0.000s      0.002w     36 calls
JK: JK                              :     63.167u     17.733s     48.860w     36 calls
JK: (Q|mn) Read                     :      0.100u      2.550s      1.629w     72 calls
JK: J                               :      0.983u      0.083s      0.631w     72 calls
JK: J1                              :      0.367u      0.050s      0.288w     72 calls
JK: J2                              :      0.583u      0.033s      0.313w     72 calls
JK: K                               :     21.417u      0.017s     12.947w     72 calls
JK: K1                              :     16.817u      0.017s     10.214w     72 calls
JK: K2                              :      4.567u      0.000s      2.726w     72 calls
JK: (Q|mn)^L Read                   :      0.117u      2.433s      1.558w    108 calls
JK: (Q|mn)^R Read                   :      0.083u      2.500s      1.546w    108 calls
JK: wK                              :     39.300u      0.217s     23.731w    108 calls
JK: wK1                             :     34.667u      0.200s     20.913w    216 calls
JK: wK2                             :      4.633u      0.017s      2.811w    108 calls
JK: AO2USO                          :      0.000u      0.000s      0.000w     36 calls
HF: Form F                          :      0.017u      0.000s      0.014w     36 calls
HF: Form D                          :      0.000u      0.000s      0.007w     36 calls
HF: DIIS                            :      0.600u      0.217s      0.527w     32 calls
HF: Form C                          :      1.417u      0.000s      0.846w     32 calls

--------------------------------------------------------------------------------------
V: Grid                             :      6.517u      0.050s      3.940w      4 calls
| build grid                        :      6.017u      0.017s      3.620w      4 calls
| post-process grid                 :      0.500u      0.033s      0.320w      4 calls
DFH: sparsity prep                  :      0.483u      0.067s      0.343w      4 calls
| Libint2ERI::Libint2ERI            :      0.333u      0.050s      0.239w      4 calls
Libint2ERI::Libint2ERI              :      0.667u      0.017s      0.380w     12 calls
Libint2ErfERI::Libint2ErfERI        :      0.317u      0.000s      0.202w      4 calls
JK: (A|Q)^-1                        :      0.683u      1.467s      0.920w      4 calls
| Libint2ERI::Libint2ERI            :      0.000u      0.000s      0.001w      4 calls
JK: (A|mn)                          :      6.767u      0.017s      4.097w      4 calls
JK: (Q|mn)                          :      5.667u      0.083s      3.472w      4 calls
JK: (Q|mn) Write                    :      0.017u      0.450s      0.271w      4 calls
JK: (A|mn)^L                        :      6.367u      0.067s      3.901w      4 calls
JK: (Q|mn)^L                        :      5.717u      0.083s      3.472w      4 calls
JK: (Q|mn)^L Write                  :      0.000u      0.483s      0.296w      4 calls
JK: (Q|mn)^R                        :      6.717u      0.000s      4.069w      4 calls
JK: (Q|mn)^R Write                  :      0.017u      1.117s      0.670w      4 calls
HF: Form core H                     :      0.183u      0.017s      0.107w      4 calls
HF: Form S/X                        :      0.200u      0.017s      0.116w      4 calls
HF: Guess                           :      0.350u      0.000s      0.234w      4 calls
| SAD Guess                         :      0.350u      0.000s      0.228w      4 calls
HF: Form G                          :    679.467u     20.367s    421.684w     36 calls
| RV: Form V                        :    616.233u      2.617s    372.787w     36 calls
| | Properties                      :    341.150u      1.783s    206.183w  80208 calls
| | Functional                      :     10.550u      0.050s      6.371w  80208 calls
| | V_xc                            :    263.817u      0.783s    159.939w  80208 calls
| JK: D                             :      0.000u      0.017s      0.011w     36 calls
| JK: USO2AO                        :      0.000u      0.000s      0.002w     36 calls
| JK: JK                            :     63.167u     17.733s     48.860w     36 calls
| | JK: (Q|mn) Read                 :      0.100u      2.550s      1.629w     72 calls
| | JK: J                           :      0.983u      0.083s      0.631w     72 calls
| | | JK: J1                        :      0.367u      0.050s      0.288w     72 calls
| | | JK: J2                        :      0.583u      0.033s      0.313w     72 calls
| | JK: K                           :     21.417u      0.017s     12.947w     72 calls
| | | JK: K1                        :     16.817u      0.017s     10.214w     72 calls
| | | JK: K2                        :      4.567u      0.000s      2.726w     72 calls
| | JK: (Q|mn)^L Read               :      0.117u      2.433s      1.558w    108 calls
| | JK: (Q|mn)^R Read               :      0.083u      2.500s      1.546w    108 calls
| | JK: wK                          :     39.300u      0.217s     23.731w    108 calls
| | | JK: wK1                       :     34.667u      0.200s     20.913w    216 calls
| | | JK: wK2                       :      4.633u      0.017s      2.811w    108 calls
| JK: AO2USO                        :      0.000u      0.000s      0.000w     36 calls
HF: Form F                          :      0.017u      0.000s      0.014w     36 calls
HF: Form D                          :      0.000u      0.000s      0.007w     36 calls
HF: DIIS                            :      0.600u      0.217s      0.527w     32 calls
HF: Form C                          :      1.417u      0.000s      0.846w     32 calls

**************************************************************************************

Host: germain

Timers On : Sat Sep 28 02:13:39 2024
Timers Off: Sat Sep 28 02:13:40 2024

Wall Time:        0.33 seconds

                                                       Time (seconds)
Module                                       User      System        Wall        Calls

--------------------------------------------------------------------------------------

**************************************************************************************

Host: germain

Timers On : Sat Sep 28 02:13:38 2024
Timers Off: Sat Sep 28 02:14:46 2024

Wall Time:       67.33 seconds

                                                       Time (seconds)
Module                                       User      System        Wall        Calls
V: Grid                             :      1.500u      0.050s      0.944w      4 calls
build grid                          :      1.283u      0.017s      0.789w      4 calls
post-process grid                   :      0.217u      0.033s      0.154w      4 calls
DFH: sparsity prep                  :      0.217u      0.033s      0.128w      4 calls
Libint2ERI::Libint2ERI              :      0.267u      0.033s      0.160w     12 calls
DFH: initialize()                   :      4.517u      0.417s      2.994w      4 calls
Libint2ErfERI::Libint2ErfERI        :      0.117u      0.000s      0.074w      4 calls
DFH: AO Construction                :      0.950u      0.033s      0.594w      6 calls
DFH: AO-Met. Contraction            :      1.800u      0.017s      1.092w     12 calls
DFH: wAO Construction               :      0.950u      0.000s      0.596w      6 calls
DFH: wAO Copy                       :      0.217u      0.000s      0.112w      6 calls
HF: Form core H                     :      0.067u      0.000s      0.090w      4 calls
HF: Form S/X                        :      0.067u      0.017s      0.046w      4 calls
HF: Guess                           :      0.217u      0.017s      0.142w      4 calls
SAD Guess                           :      0.217u      0.017s      0.137w      4 calls
HF: Form G                          :     89.800u      2.350s     55.504w     33 calls
RV: Form V                          :     83.100u      1.433s     50.944w     33 calls
Properties                          :     42.250u      0.683s     25.866w  52166 calls
Functional                          :      6.517u      0.167s      4.009w  52166 calls
V_xc                                :     34.083u      0.583s     20.932w  52166 calls
JK: D                               :      0.017u      0.000s      0.004w     33 calls
JK: USO2AO                          :      0.000u      0.000s      0.001w     33 calls
JK: JK                              :      6.650u      0.917s      4.545w     33 calls
DFH: compute_JK()                   :      2.783u      0.300s      1.847w     33 calls
DFH: Grabbing AOs                   :      0.000u      0.000s      0.000w     33 calls
DFH: compute_J                      :      0.617u      0.183s      0.483w     33 calls
DFH: compute_K                      :      2.167u      0.000s      1.302w     33 calls
DFH: compute_wK()                   :      3.867u      0.617s      2.691w     33 calls
JK: AO2USO                          :      0.000u      0.000s      0.000w     33 calls
HF: Form F                          :      0.000u      0.000s      0.005w     33 calls
HF: Form D                          :      0.017u      0.000s      0.002w     33 calls
HF: DIIS                            :      0.333u      0.050s      0.236w     29 calls
HF: Form C                          :      0.383u      0.000s      0.232w     29 calls

--------------------------------------------------------------------------------------
V: Grid                             :      1.500u      0.050s      0.944w      4 calls
| build grid                        :      1.283u      0.017s      0.789w      4 calls
| post-process grid                 :      0.217u      0.033s      0.154w      4 calls
DFH: sparsity prep                  :      0.217u      0.033s      0.128w      4 calls
| Libint2ERI::Libint2ERI            :      0.150u      0.033s      0.090w      4 calls
DFH: initialize()                   :      4.517u      0.417s      2.994w      4 calls
| Libint2ERI::Libint2ERI            :      0.117u      0.000s      0.070w      8 calls
| Libint2ErfERI::Libint2ErfERI      :      0.117u      0.000s      0.074w      4 calls
| DFH: AO Construction              :      0.950u      0.033s      0.594w      6 calls
| DFH: AO-Met. Contraction          :      1.800u      0.017s      1.092w     12 calls
| DFH: wAO Construction             :      0.950u      0.000s      0.596w      6 calls
| DFH: wAO Copy                     :      0.217u      0.000s      0.112w      6 calls
HF: Form core H                     :      0.067u      0.000s      0.090w      4 calls
HF: Form S/X                        :      0.067u      0.017s      0.046w      4 calls
HF: Guess                           :      0.217u      0.017s      0.142w      4 calls
| SAD Guess                         :      0.217u      0.017s      0.137w      4 calls
HF: Form G                          :     89.800u      2.350s     55.504w     33 calls
| RV: Form V                        :     83.100u      1.433s     50.944w     33 calls
| | Properties                      :     42.250u      0.683s     25.866w  52166 calls
| | Functional                      :      6.517u      0.167s      4.009w  52166 calls
| | V_xc                            :     34.083u      0.583s     20.932w  52166 calls
| JK: D                             :      0.017u      0.000s      0.004w     33 calls
| JK: USO2AO                        :      0.000u      0.000s      0.001w     33 calls
| JK: JK                            :      6.650u      0.917s      4.545w     33 calls
| | DFH: compute_JK()               :      2.783u      0.300s      1.847w     33 calls
| | | DFH: Grabbing AOs             :      0.000u      0.000s      0.000w     33 calls
| | | DFH: compute_J                :      0.617u      0.183s      0.483w     33 calls
| | | DFH: compute_K                :      2.167u      0.000s      1.302w     33 calls
| | DFH: compute_wK()               :      3.867u      0.617s      2.691w     33 calls
| JK: AO2USO                        :      0.000u      0.000s      0.000w     33 calls
HF: Form F                          :      0.000u      0.000s      0.005w     33 calls
HF: Form D                          :      0.017u      0.000s      0.002w     33 calls
HF: DIIS                            :      0.333u      0.050s      0.236w     29 calls
HF: Form C                          :      0.383u      0.000s      0.232w     29 calls

**************************************************************************************

Host: germain

Timers On : Sat Sep 28 02:45:21 2024
Timers Off: Sat Sep 28 02:45:22 2024

Wall Time:        0.35 seconds

                                                       Time (seconds)
Module                                       User      System        Wall        Calls

--------------------------------------------------------------------------------------

**************************************************************************************

Host: germain

Timers On : Sat Sep 28 02:45:21 2024
Timers Off: Sat Sep 28 02:51:04 2024

Wall Time:      343.26 seconds

                                                       Time (seconds)
Module                                       User      System        Wall        Calls
V: Grid                             :      3.517u      0.067s      2.211w      4 calls
build grid                          :      3.100u      0.017s      1.925w      4 calls
post-process grid                   :      0.417u      0.050s      0.285w      4 calls
DFH: sparsity prep                  :      0.317u      0.000s      0.237w      4 calls
Libint2ERI::Libint2ERI              :      0.433u      0.000s      0.282w     12 calls
DFH: initialize()                   :     18.283u      2.200s     12.300w      4 calls
Libint2ErfERI::Libint2ErfERI        :      0.200u      0.017s      0.134w      4 calls
DFH: AO Construction                :      4.167u      0.133s      2.577w      8 calls
DFH: AO-Met. Contraction            :      7.700u      0.083s      4.682w     16 calls
DFH: wAO Construction               :      4.400u      0.017s      2.652w      8 calls
DFH: wAO Copy                       :      0.783u      0.050s      0.491w      8 calls
HF: Form core H                     :      0.133u      0.000s      0.077w      4 calls
HF: Form S/X                        :      0.133u      0.000s      0.075w      4 calls
HF: Guess                           :      0.283u      0.050s      0.205w      4 calls
SAD Guess                           :      0.283u      0.050s      0.199w      4 calls
HF: Form G                          :    528.267u      4.800s    321.218w     35 calls
RV: Form V                          :    500.950u      1.600s    302.880w     35 calls
Properties                          :    280.833u      1.000s    169.222w  73686 calls
Functional                          :      9.733u      0.100s      5.902w  73686 calls
V_xc                                :    209.817u      0.500s    127.487w  73686 calls
JK: D                               :      0.017u      0.000s      0.008w     35 calls
JK: USO2AO                          :      0.000u      0.000s      0.001w     35 calls
JK: JK                              :     27.283u      3.200s     18.311w     35 calls
DFH: compute_JK()                   :     10.883u      1.083s      7.184w     35 calls
DFH: Grabbing AOs                   :      0.000u      0.000s      0.000w     35 calls
DFH: compute_J                      :      2.133u      0.850s      1.817w     35 calls
DFH: compute_K                      :      8.633u      0.033s      5.214w     35 calls
DFH: compute_wK()                   :     16.400u      2.100s     11.113w     35 calls
JK: AO2USO                          :      0.000u      0.000s      0.000w     35 calls
HF: Form F                          :      0.083u      0.000s      0.009w     35 calls
HF: Form D                          :      0.000u      0.000s      0.004w     35 calls
HF: DIIS                            :      0.433u      0.200s      0.394w     31 calls
HF: Form C                          :      0.917u      0.033s      0.573w     31 calls

--------------------------------------------------------------------------------------
V: Grid                             :      3.517u      0.067s      2.211w      4 calls
| build grid                        :      3.100u      0.017s      1.925w      4 calls
| post-process grid                 :      0.417u      0.050s      0.285w      4 calls
DFH: sparsity prep                  :      0.317u      0.000s      0.237w      4 calls
| Libint2ERI::Libint2ERI            :      0.200u      0.000s      0.146w      4 calls
DFH: initialize()                   :     18.283u      2.200s     12.300w      4 calls
| Libint2ERI::Libint2ERI            :      0.233u      0.000s      0.135w      8 calls
| Libint2ErfERI::Libint2ErfERI      :      0.200u      0.017s      0.134w      4 calls
| DFH: AO Construction              :      4.167u      0.133s      2.577w      8 calls
| DFH: AO-Met. Contraction          :      7.700u      0.083s      4.682w     16 calls
| DFH: wAO Construction             :      4.400u      0.017s      2.652w      8 calls
| DFH: wAO Copy                     :      0.783u      0.050s      0.491w      8 calls
HF: Form core H                     :      0.133u      0.000s      0.077w      4 calls
HF: Form S/X                        :      0.133u      0.000s      0.075w      4 calls
HF: Guess                           :      0.283u      0.050s      0.205w      4 calls
| SAD Guess                         :      0.283u      0.050s      0.199w      4 calls
HF: Form G                          :    528.267u      4.800s    321.218w     35 calls
| RV: Form V                        :    500.950u      1.600s    302.880w     35 calls
| | Properties                      :    280.833u      1.000s    169.222w  73686 calls
| | Functional                      :      9.733u      0.100s      5.902w  73686 calls
| | V_xc                            :    209.817u      0.500s    127.487w  73686 calls
| JK: D                             :      0.017u      0.000s      0.008w     35 calls
| JK: USO2AO                        :      0.000u      0.000s      0.001w     35 calls
| JK: JK                            :     27.283u      3.200s     18.311w     35 calls
| | DFH: compute_JK()               :     10.883u      1.083s      7.184w     35 calls
| | | DFH: Grabbing AOs             :      0.000u      0.000s      0.000w     35 calls
| | | DFH: compute_J                :      2.133u      0.850s      1.817w     35 calls
| | | DFH: compute_K                :      8.633u      0.033s      5.214w     35 calls
| | DFH: compute_wK()               :     16.400u      2.100s     11.113w     35 calls
| JK: AO2USO                        :      0.000u      0.000s      0.000w     35 calls
HF: Form F                          :      0.083u      0.000s      0.009w     35 calls
HF: Form D                          :      0.000u      0.000s      0.004w     35 calls
HF: DIIS                            :      0.433u      0.200s      0.394w     31 calls
HF: Form C                          :      0.917u      0.033s      0.573w     31 calls

**************************************************************************************

Host: germain

Timers On : Sat Sep 28 03:43:03 2024
Timers Off: Sat Sep 28 03:43:04 2024

Wall Time:        0.36 seconds

                                                       Time (seconds)
Module                                       User      System        Wall        Calls

--------------------------------------------------------------------------------------

**************************************************************************************

Host: germain

Timers On : Sat Sep 28 03:43:02 2024
Timers Off: Sat Sep 28 05:38:13 2024

Wall Time:     6911.13 seconds

                                                       Time (seconds)
Module                                       User      System        Wall        Calls
V: Grid                             :     62.033u      0.183s     37.449w      4 calls
build grid                          :     59.333u      0.083s     35.761w      4 calls
post-process grid                   :      2.700u      0.100s      1.686w      4 calls
DFH: sparsity prep                  :      3.900u      0.117s      2.420w      4 calls
Libint2ERI::Libint2ERI              :      7.717u      0.150s      4.700w     20 calls
Libint2ErfERI::Libint2ErfERI        :      2.733u      0.033s      1.677w      4 calls
JK: (A|Q)^-1                        :      9.283u     28.283s     17.133w      4 calls
JK: (A|mn)                          :    131.167u      1.250s     79.633w     20 calls
JK: (Q|mn)                          :    281.900u      1.600s    170.645w     20 calls
JK: (Q|mn) Write                    :      0.083u     11.800s      7.163w     20 calls
JK: (A|mn)^L                        :    130.867u      0.467s     79.100w     20 calls
JK: (Q|mn)^L                        :    280.733u      1.500s    169.644w     20 calls
JK: (Q|mn)^L Write                  :      0.100u     10.967s      6.674w     20 calls
JK: (Q|mn)^R                        :    128.317u      0.250s     77.331w     16 calls
JK: (Q|mn)^R Write                  :      0.067u     20.983s     13.089w     16 calls
HF: Form core H                     :      3.317u      0.100s      2.046w      4 calls
HF: Form S/X                        :      2.983u      0.100s      1.858w      4 calls
HF: Guess                           :      0.733u      0.050s      0.472w      4 calls
SAD Guess                           :      0.717u      0.017s      0.444w      4 calls
HF: Form G                          :  10042.900u    227.400s   6182.122w     40 calls
RV: Form V                          :   7831.567u      8.283s   4719.504w     40 calls
Properties                          :   4392.800u      6.150s   2654.102w 231220 calls
Functional                          :     37.183u      0.067s     21.483w 231220 calls
V_xc                                :   3397.933u      2.000s   2042.033w 231220 calls
JK: D                               :      0.250u      0.100s      0.181w     40 calls
JK: USO2AO                          :      0.017u      0.033s      0.025w     40 calls
JK: JK                              :   2210.867u    218.800s   1462.122w     40 calls
JK: (Q|mn) Read                     :      0.533u     55.467s     33.726w    204 calls
JK: J                               :     22.583u      0.333s     13.771w    204 calls
JK: J1                              :     10.300u      0.083s      6.273w    204 calls
JK: J2                              :     11.600u      0.017s      6.922w    204 calls
JK: K                               :    821.583u      1.400s    495.308w    204 calls
JK: K1                              :    553.233u      1.233s    333.777w    204 calls
JK: K2                              :    268.133u      0.167s    161.416w    204 calls
JK: (Q|mn)^L Read                   :      0.650u     50.083s     30.762w    404 calls
JK: (Q|mn)^R Read                   :      0.467u     49.567s     30.138w    404 calls
JK: wK                              :   1359.167u      8.200s    822.599w    404 calls
JK: wK1                             :   1087.767u      7.183s    658.782w    808 calls
JK: wK2                             :    271.333u      0.867s    163.652w    404 calls
JK: AO2USO                          :      0.000u      0.000s      0.000w     40 calls
HF: Form F                          :      0.117u      0.100s      0.115w     40 calls
HF: Form D                          :      0.067u      0.000s      0.115w     40 calls
HF: DIIS                            :     11.067u      2.550s      8.196w     36 calls
HF: Form C                          :     33.117u      0.100s     19.914w     36 calls

--------------------------------------------------------------------------------------
V: Grid                             :     62.033u      0.183s     37.449w      4 calls
| build grid                        :     59.333u      0.083s     35.761w      4 calls
| post-process grid                 :      2.700u      0.100s      1.686w      4 calls
DFH: sparsity prep                  :      3.900u      0.117s      2.420w      4 calls
| Libint2ERI::Libint2ERI            :      2.550u      0.100s      1.600w      4 calls
Libint2ERI::Libint2ERI              :      5.167u      0.017s      3.098w     12 calls
Libint2ErfERI::Libint2ErfERI        :      2.733u      0.033s      1.677w      4 calls
JK: (A|Q)^-1                        :      9.283u     28.283s     17.133w      4 calls
| Libint2ERI::Libint2ERI            :      0.000u      0.033s      0.002w      4 calls
JK: (A|mn)                          :    131.167u      1.250s     79.633w     20 calls
JK: (Q|mn)                          :    281.900u      1.600s    170.645w     20 calls
JK: (Q|mn) Write                    :      0.083u     11.800s      7.163w     20 calls
JK: (A|mn)^L                        :    130.867u      0.467s     79.100w     20 calls
JK: (Q|mn)^L                        :    280.733u      1.500s    169.644w     20 calls
JK: (Q|mn)^L Write                  :      0.100u     10.967s      6.674w     20 calls
JK: (Q|mn)^R                        :    128.317u      0.250s     77.331w     16 calls
JK: (Q|mn)^R Write                  :      0.067u     20.983s     13.089w     16 calls
HF: Form core H                     :      3.317u      0.100s      2.046w      4 calls
HF: Form S/X                        :      2.983u      0.100s      1.858w      4 calls
HF: Guess                           :      0.733u      0.050s      0.472w      4 calls
| SAD Guess                         :      0.717u      0.017s      0.444w      4 calls
HF: Form G                          :  10042.900u    227.400s   6182.122w     40 calls
| RV: Form V                        :   7831.567u      8.283s   4719.504w     40 calls
| | Properties                      :   4392.800u      6.150s   2654.102w 231220 calls
| | Functional                      :     37.183u      0.067s     21.483w 231220 calls
| | V_xc                            :   3397.933u      2.000s   2042.033w 231220 calls
| JK: D                             :      0.250u      0.100s      0.181w     40 calls
| JK: USO2AO                        :      0.017u      0.033s      0.025w     40 calls
| JK: JK                            :   2210.867u    218.800s   1462.122w     40 calls
| | JK: (Q|mn) Read                 :      0.533u     55.467s     33.726w    204 calls
| | JK: J                           :     22.583u      0.333s     13.771w    204 calls
| | | JK: J1                        :     10.300u      0.083s      6.273w    204 calls
| | | JK: J2                        :     11.600u      0.017s      6.922w    204 calls
| | JK: K                           :    821.583u      1.400s    495.308w    204 calls
| | | JK: K1                        :    553.233u      1.233s    333.777w    204 calls
| | | JK: K2                        :    268.133u      0.167s    161.416w    204 calls
| | JK: (Q|mn)^L Read               :      0.650u     50.083s     30.762w    404 calls
| | JK: (Q|mn)^R Read               :      0.467u     49.567s     30.138w    404 calls
| | JK: wK                          :   1359.167u      8.200s    822.599w    404 calls
| | | JK: wK1                       :   1087.767u      7.183s    658.782w    808 calls
| | | JK: wK2                       :    271.333u      0.867s    163.652w    404 calls
| JK: AO2USO                        :      0.000u      0.000s      0.000w     40 calls
HF: Form F                          :      0.117u      0.100s      0.115w     40 calls
HF: Form D                          :      0.067u      0.000s      0.115w     40 calls
HF: DIIS                            :     11.067u      2.550s      8.196w     36 calls
HF: Form C                          :     33.117u      0.100s     19.914w     36 calls

**************************************************************************************

Host: germain

Timers On : Sat Sep 28 06:22:46 2024
Timers Off: Sat Sep 28 06:22:46 2024

Wall Time:        0.34 seconds

                                                       Time (seconds)
Module                                       User      System        Wall        Calls

--------------------------------------------------------------------------------------

**************************************************************************************

Host: germain

Timers On : Sat Sep 28 06:22:45 2024
Timers Off: Sat Sep 28 08:46:44 2024

Wall Time:     8639.53 seconds

                                                       Time (seconds)
Module                                       User      System        Wall        Calls
V: Grid                             :     82.500u      0.400s     49.977w      4 calls
build grid                          :     79.300u      0.250s     47.940w      4 calls
post-process grid                   :      3.200u      0.150s      2.035w      4 calls
DFH: sparsity prep                  :      5.333u      0.183s      3.319w      4 calls
Libint2ERI::Libint2ERI              :     10.550u      0.233s      6.516w     20 calls
Libint2ErfERI::Libint2ErfERI        :      3.700u      0.050s      2.254w      4 calls
JK: (A|Q)^-1                        :     15.117u     39.467s     23.911w      4 calls
JK: (A|mn)                          :    188.233u      2.917s    115.180w     28 calls
JK: (Q|mn)                          :    488.217u      6.350s    297.883w     28 calls
JK: (Q|mn) Write                    :      0.133u     18.467s     11.259w     28 calls
JK: (A|mn)^L                        :    190.100u      3.150s    116.763w     28 calls
JK: (Q|mn)^L                        :    488.900u      6.933s    299.102w     28 calls
JK: (Q|mn)^L Write                  :      0.183u     17.800s     10.862w     28 calls
JK: (Q|mn)^R                        :    186.450u      3.467s    114.540w     24 calls
JK: (Q|mn)^R Write                  :      0.100u     32.483s     19.637w     24 calls
HF: Form core H                     :      4.583u      0.183s      2.867w      4 calls
HF: Form S/X                        :      4.233u      0.133s      2.629w      4 calls
HF: Guess                           :      1.083u      0.050s      0.679w      4 calls
SAD Guess                           :      1.067u      0.000s      0.646w      4 calls
HF: Form G                          :  12052.867u    378.483s   7491.480w     39 calls
RV: Form V                          :   8385.317u     15.983s   5062.556w     39 calls
Properties                          :   4707.283u     11.000s   2841.312w 247555 calls
Functional                          :     36.517u      0.050s     22.489w 247555 calls
V_xc                                :   3637.333u      4.833s   2196.834w 247555 calls
JK: D                               :      0.300u      0.150s      0.260w     39 calls
JK: USO2AO                          :      0.017u      0.017s      0.030w     39 calls
JK: JK                              :   3666.833u    361.933s   2428.208w     39 calls
JK: (Q|mn) Read                     :      0.967u     88.917s     55.038w    312 calls
JK: J                               :     32.617u      1.750s     20.665w    312 calls
JK: J1                              :     14.833u      0.850s      9.406w    312 calls
JK: J2                              :     16.050u      0.217s      9.793w    312 calls
JK: K                               :   1355.317u     19.917s    828.714w    312 calls
JK: K1                              :    869.200u     16.967s    534.276w    312 calls
JK: K2                              :    485.767u      2.750s    294.151w    312 calls
JK: (Q|mn)^L Read                   :      1.033u     83.067s     50.860w    589 calls
JK: (Q|mn)^R Read                   :      0.783u     75.050s     45.605w    589 calls
JK: wK                              :   2270.400u     39.817s   1391.743w    589 calls
JK: wK1                             :   1774.050u     34.900s   1089.989w   1178 calls
JK: wK2                             :    495.950u      4.667s    301.301w    589 calls
JK: AO2USO                          :      0.000u      0.000s      0.000w     39 calls
HF: Form F                          :      0.067u      0.100s      0.148w     39 calls
HF: Form D                          :      0.367u      0.000s      0.190w     39 calls
HF: DIIS                            :     15.067u      3.167s     10.899w     35 calls
HF: Form C                          :     38.650u      0.100s     23.346w     35 calls

--------------------------------------------------------------------------------------
V: Grid                             :     82.500u      0.400s     49.977w      4 calls
| build grid                        :     79.300u      0.250s     47.940w      4 calls
| post-process grid                 :      3.200u      0.150s      2.035w      4 calls
DFH: sparsity prep                  :      5.333u      0.183s      3.319w      4 calls
| Libint2ERI::Libint2ERI            :      3.517u      0.150s      2.212w      4 calls
Libint2ERI::Libint2ERI              :      7.033u      0.083s      4.300w     12 calls
Libint2ErfERI::Libint2ErfERI        :      3.700u      0.050s      2.254w      4 calls
JK: (A|Q)^-1                        :     15.117u     39.467s     23.911w      4 calls
| Libint2ERI::Libint2ERI            :      0.000u      0.000s      0.004w      4 calls
JK: (A|mn)                          :    188.233u      2.917s    115.180w     28 calls
JK: (Q|mn)                          :    488.217u      6.350s    297.883w     28 calls
JK: (Q|mn) Write                    :      0.133u     18.467s     11.259w     28 calls
JK: (A|mn)^L                        :    190.100u      3.150s    116.763w     28 calls
JK: (Q|mn)^L                        :    488.900u      6.933s    299.102w     28 calls
JK: (Q|mn)^L Write                  :      0.183u     17.800s     10.862w     28 calls
JK: (Q|mn)^R                        :    186.450u      3.467s    114.540w     24 calls
JK: (Q|mn)^R Write                  :      0.100u     32.483s     19.637w     24 calls
HF: Form core H                     :      4.583u      0.183s      2.867w      4 calls
HF: Form S/X                        :      4.233u      0.133s      2.629w      4 calls
HF: Guess                           :      1.083u      0.050s      0.679w      4 calls
| SAD Guess                         :      1.067u      0.000s      0.646w      4 calls
HF: Form G                          :  12052.867u    378.483s   7491.480w     39 calls
| RV: Form V                        :   8385.317u     15.983s   5062.556w     39 calls
| | Properties                      :   4707.283u     11.000s   2841.312w 247555 calls
| | Functional                      :     36.517u      0.050s     22.489w 247555 calls
| | V_xc                            :   3637.333u      4.833s   2196.834w 247555 calls
| JK: D                             :      0.300u      0.150s      0.260w     39 calls
| JK: USO2AO                        :      0.017u      0.017s      0.030w     39 calls
| JK: JK                            :   3666.833u    361.933s   2428.208w     39 calls
| | JK: (Q|mn) Read                 :      0.967u     88.917s     55.038w    312 calls
| | JK: J                           :     32.617u      1.750s     20.665w    312 calls
| | | JK: J1                        :     14.833u      0.850s      9.406w    312 calls
| | | JK: J2                        :     16.050u      0.217s      9.793w    312 calls
| | JK: K                           :   1355.317u     19.917s    828.714w    312 calls
| | | JK: K1                        :    869.200u     16.967s    534.276w    312 calls
| | | JK: K2                        :    485.767u      2.750s    294.151w    312 calls
| | JK: (Q|mn)^L Read               :      1.033u     83.067s     50.860w    589 calls
| | JK: (Q|mn)^R Read               :      0.783u     75.050s     45.605w    589 calls
| | JK: wK                          :   2270.400u     39.817s   1391.743w    589 calls
| | | JK: wK1                       :   1774.050u     34.900s   1089.989w   1178 calls
| | | JK: wK2                       :    495.950u      4.667s    301.301w    589 calls
| JK: AO2USO                        :      0.000u      0.000s      0.000w     39 calls
HF: Form F                          :      0.067u      0.100s      0.148w     39 calls
HF: Form D                          :      0.367u      0.000s      0.190w     39 calls
HF: DIIS                            :     15.067u      3.167s     10.899w     35 calls
HF: Form C                          :     38.650u      0.100s     23.346w     35 calls

**************************************************************************************

Host: germain

Timers On : Sat Sep 28 09:43:21 2024
Timers Off: Sat Sep 28 09:43:22 2024

Wall Time:        0.36 seconds

                                                       Time (seconds)
Module                                       User      System        Wall        Calls

--------------------------------------------------------------------------------------

**************************************************************************************

Host: germain

Timers On : Sat Sep 28 09:43:20 2024
Timers Off: Sat Sep 28 10:36:57 2024

Wall Time:     3216.43 seconds

                                                       Time (seconds)
Module                                       User      System        Wall        Calls
V: Grid                             :      8.733u      0.083s      5.388w      4 calls
build grid                          :      8.017u      0.033s      4.879w      4 calls
post-process grid                   :      0.717u      0.050s      0.507w      4 calls
DFH: sparsity prep                  :      3.550u      0.100s      2.189w      4 calls
Libint2ERI::Libint2ERI              :      6.783u      0.083s      4.146w     20 calls
Libint2ErfERI::Libint2ErfERI        :      2.400u      0.017s      1.448w      4 calls
JK: (A|Q)^-1                        :     12.633u     17.700s     10.985w      4 calls
JK: (A|mn)                          :     76.000u      1.000s     46.343w     12 calls
JK: (Q|mn)                          :    206.633u      1.900s    125.519w     12 calls
JK: (Q|mn) Write                    :      0.050u      7.617s      4.611w     12 calls
JK: (A|mn)^L                        :     76.200u      1.483s     46.682w     12 calls
JK: (Q|mn)^L                        :    206.833u      2.550s    125.884w     12 calls
JK: (Q|mn)^L Write                  :      0.067u      7.683s      4.650w     12 calls
JK: (Q|mn)^R                        :     76.317u      0.967s     46.603w     12 calls
JK: (Q|mn)^R Write                  :      0.067u     14.833s      8.954w     12 calls
HF: Form core H                     :      1.083u      0.067s      0.686w      4 calls
HF: Form S/X                        :      1.767u      0.000s      1.081w      4 calls
HF: Guess                           :      0.600u      0.017s      0.365w      4 calls
SAD Guess                           :      0.600u      0.000s      0.348w      4 calls
HF: Form G                          :   4348.850u    214.567s   2746.287w     43 calls
RV: Form V                          :   2313.900u      4.817s   1395.517w     43 calls
Properties                          :   1290.433u      3.383s    779.763w 122499 calls
Functional                          :     16.883u      0.050s     10.421w 122499 calls
V_xc                                :   1005.317u      1.367s    604.674w 122499 calls
JK: D                               :      0.233u      0.167s      0.158w     43 calls
JK: USO2AO                          :      0.033u      0.017s      0.016w     43 calls
JK: JK                              :   2034.417u    209.467s   1350.367w     43 calls
JK: (Q|mn) Read                     :      0.650u     40.650s     24.747w    172 calls
JK: J                               :     15.483u      0.600s      9.655w    172 calls
JK: J1                              :      7.183u      0.400s      4.560w    172 calls
JK: J2                              :      7.883u      0.017s      4.702w    172 calls
JK: K                               :    777.150u      6.233s    471.286w    172 calls
JK: K1                              :    476.467u      4.567s    289.387w    172 calls
JK: K2                              :    300.583u      1.650s    181.813w    172 calls
JK: (Q|mn)^L Read                   :      0.867u     43.583s     26.551w    326 calls
JK: (Q|mn)^R Read                   :      0.550u     37.267s     22.692w    326 calls
JK: wK                              :   1233.200u     20.650s    754.947w    326 calls
JK: wK1                             :    927.100u     16.033s    568.011w    652 calls
JK: wK2                             :    305.983u      4.483s    186.803w    326 calls
JK: AO2USO                          :      0.000u      0.000s      0.000w     43 calls
HF: Form F                          :      0.033u      0.033s      0.088w     43 calls
HF: Form D                          :      0.250u      0.017s      0.114w     43 calls
HF: DIIS                            :      5.850u      1.667s      4.427w     39 calls
HF: Form C                          :     15.100u      0.033s      9.170w     39 calls

--------------------------------------------------------------------------------------
V: Grid                             :      8.733u      0.083s      5.388w      4 calls
| build grid                        :      8.017u      0.033s      4.879w      4 calls
| post-process grid                 :      0.717u      0.050s      0.507w      4 calls
DFH: sparsity prep                  :      3.550u      0.100s      2.189w      4 calls
| Libint2ERI::Libint2ERI            :      2.333u      0.067s      1.452w      4 calls
Libint2ERI::Libint2ERI              :      4.450u      0.000s      2.691w     12 calls
Libint2ErfERI::Libint2ErfERI        :      2.400u      0.017s      1.448w      4 calls
JK: (A|Q)^-1                        :     12.633u     17.700s     10.985w      4 calls
| Libint2ERI::Libint2ERI            :      0.000u      0.017s      0.002w      4 calls
JK: (A|mn)                          :     76.000u      1.000s     46.343w     12 calls
JK: (Q|mn)                          :    206.633u      1.900s    125.519w     12 calls
JK: (Q|mn) Write                    :      0.050u      7.617s      4.611w     12 calls
JK: (A|mn)^L                        :     76.200u      1.483s     46.682w     12 calls
JK: (Q|mn)^L                        :    206.833u      2.550s    125.884w     12 calls
JK: (Q|mn)^L Write                  :      0.067u      7.683s      4.650w     12 calls
JK: (Q|mn)^R                        :     76.317u      0.967s     46.603w     12 calls
JK: (Q|mn)^R Write                  :      0.067u     14.833s      8.954w     12 calls
HF: Form core H                     :      1.083u      0.067s      0.686w      4 calls
HF: Form S/X                        :      1.767u      0.000s      1.081w      4 calls
HF: Guess                           :      0.600u      0.017s      0.365w      4 calls
| SAD Guess                         :      0.600u      0.000s      0.348w      4 calls
HF: Form G                          :   4348.850u    214.567s   2746.287w     43 calls
| RV: Form V                        :   2313.900u      4.817s   1395.517w     43 calls
| | Properties                      :   1290.433u      3.383s    779.763w 122499 calls
| | Functional                      :     16.883u      0.050s     10.421w 122499 calls
| | V_xc                            :   1005.317u      1.367s    604.674w 122499 calls
| JK: D                             :      0.233u      0.167s      0.158w     43 calls
| JK: USO2AO                        :      0.033u      0.017s      0.016w     43 calls
| JK: JK                            :   2034.417u    209.467s   1350.367w     43 calls
| | JK: (Q|mn) Read                 :      0.650u     40.650s     24.747w    172 calls
| | JK: J                           :     15.483u      0.600s      9.655w    172 calls
| | | JK: J1                        :      7.183u      0.400s      4.560w    172 calls
| | | JK: J2                        :      7.883u      0.017s      4.702w    172 calls
| | JK: K                           :    777.150u      6.233s    471.286w    172 calls
| | | JK: K1                        :    476.467u      4.567s    289.387w    172 calls
| | | JK: K2                        :    300.583u      1.650s    181.813w    172 calls
| | JK: (Q|mn)^L Read               :      0.867u     43.583s     26.551w    326 calls
| | JK: (Q|mn)^R Read               :      0.550u     37.267s     22.692w    326 calls
| | JK: wK                          :   1233.200u     20.650s    754.947w    326 calls
| | | JK: wK1                       :    927.100u     16.033s    568.011w    652 calls
| | | JK: wK2                       :    305.983u      4.483s    186.803w    326 calls
| JK: AO2USO                        :      0.000u      0.000s      0.000w     43 calls
HF: Form F                          :      0.033u      0.033s      0.088w     43 calls
HF: Form D                          :      0.250u      0.017s      0.114w     43 calls
HF: DIIS                            :      5.850u      1.667s      4.427w     39 calls
HF: Form C                          :     15.100u      0.033s      9.170w     39 calls

**************************************************************************************

Host: germain

Timers On : Sat Sep 28 11:04:35 2024
Timers Off: Sat Sep 28 11:04:36 2024

Wall Time:        0.33 seconds

                                                       Time (seconds)
Module                                       User      System        Wall        Calls

--------------------------------------------------------------------------------------

**************************************************************************************

Host: germain

Timers On : Sat Sep 28 11:04:34 2024
Timers Off: Sat Sep 28 11:18:30 2024

Wall Time:      835.21 seconds

                                                       Time (seconds)
Module                                       User      System        Wall        Calls
V: Grid                             :     10.517u      0.133s      6.408w      4 calls
build grid                          :      9.817u      0.050s      5.947w      4 calls
post-process grid                   :      0.700u      0.083s      0.460w      4 calls
DFH: sparsity prep                  :      0.700u      0.033s      0.460w      4 calls
Libint2ERI::Libint2ERI              :      1.333u      0.050s      0.859w     20 calls
Libint2ErfERI::Libint2ErfERI        :      0.467u      0.000s      0.283w      4 calls
JK: (A|Q)^-1                        :      0.900u      2.500s      1.493w      4 calls
JK: (A|mn)                          :     11.283u      0.100s      6.907w      4 calls
JK: (Q|mn)                          :     10.900u      0.183s      6.639w      4 calls
JK: (Q|mn) Write                    :      0.000u      0.900s      0.546w      4 calls
JK: (A|mn)^L                        :     11.200u      0.233s      6.878w      4 calls
JK: (Q|mn)^L                        :     10.833u      0.350s      6.744w      4 calls
JK: (Q|mn)^L Write                  :      0.033u      0.850s      0.552w      4 calls
JK: (Q|mn)^R                        :     11.767u      0.083s      7.140w      4 calls
JK: (Q|mn)^R Write                  :      0.000u      2.100s      1.261w      4 calls
HF: Form core H                     :      0.267u      0.033s      0.178w      4 calls
HF: Form S/X                        :      0.333u      0.017s      0.204w      4 calls
HF: Guess                           :      0.233u      0.000s      0.140w      4 calls
SAD Guess                           :      0.233u      0.000s      0.132w      4 calls
HF: Form G                          :   1250.033u     36.533s    773.971w     36 calls
RV: Form V                          :   1145.633u      4.350s    691.679w     36 calls
Properties                          :    635.883u      3.367s    385.384w 101547 calls
Functional                          :     13.750u      0.050s      8.352w 101547 calls
V_xc                                :    494.783u      0.933s    297.488w 101547 calls
JK: D                               :      0.017u      0.033s      0.021w     36 calls
JK: USO2AO                          :      0.017u      0.000s      0.004w     36 calls
JK: JK                              :    104.333u     32.133s     82.221w     36 calls
JK: (Q|mn) Read                     :      0.150u      4.650s      2.908w     72 calls
JK: J                               :      1.600u      0.200s      1.046w     72 calls
JK: J1                              :      0.683u      0.117s      0.482w     72 calls
JK: J2                              :      0.833u      0.017s      0.505w     72 calls
JK: K                               :     37.600u      0.083s     22.638w     72 calls
JK: K1                              :     30.017u      0.083s     18.111w     72 calls
JK: K2                              :      7.567u      0.000s      4.511w     72 calls
JK: (Q|mn)^L Read                   :      0.167u      4.050s      2.537w    108 calls
JK: (Q|mn)^R Read                   :      0.083u      4.117s      2.545w    108 calls
JK: wK                              :     62.933u      0.400s     38.170w    108 calls
JK: wK1                             :     55.283u      0.350s     33.545w    216 calls
JK: wK2                             :      7.650u      0.033s      4.615w    108 calls
JK: AO2USO                          :      0.000u      0.000s      0.000w     36 calls
HF: Form F                          :      0.017u      0.017s      0.021w     36 calls
HF: Form D                          :      0.017u      0.000s      0.010w     36 calls
HF: DIIS                            :      0.883u      0.500s      0.835w     32 calls
HF: Form C                          :      2.417u      0.033s      1.482w     32 calls

--------------------------------------------------------------------------------------
V: Grid                             :     10.517u      0.133s      6.408w      4 calls
| build grid                        :      9.817u      0.050s      5.947w      4 calls
| post-process grid                 :      0.700u      0.083s      0.460w      4 calls
DFH: sparsity prep                  :      0.700u      0.033s      0.460w      4 calls
| Libint2ERI::Libint2ERI            :      0.483u      0.033s      0.322w      4 calls
Libint2ERI::Libint2ERI              :      0.850u      0.000s      0.535w     12 calls
Libint2ErfERI::Libint2ErfERI        :      0.467u      0.000s      0.283w      4 calls
JK: (A|Q)^-1                        :      0.900u      2.500s      1.493w      4 calls
| Libint2ERI::Libint2ERI            :      0.000u      0.017s      0.002w      4 calls
JK: (A|mn)                          :     11.283u      0.100s      6.907w      4 calls
JK: (Q|mn)                          :     10.900u      0.183s      6.639w      4 calls
JK: (Q|mn) Write                    :      0.000u      0.900s      0.546w      4 calls
JK: (A|mn)^L                        :     11.200u      0.233s      6.878w      4 calls
JK: (Q|mn)^L                        :     10.833u      0.350s      6.744w      4 calls
JK: (Q|mn)^L Write                  :      0.033u      0.850s      0.552w      4 calls
JK: (Q|mn)^R                        :     11.767u      0.083s      7.140w      4 calls
JK: (Q|mn)^R Write                  :      0.000u      2.100s      1.261w      4 calls
HF: Form core H                     :      0.267u      0.033s      0.178w      4 calls
HF: Form S/X                        :      0.333u      0.017s      0.204w      4 calls
HF: Guess                           :      0.233u      0.000s      0.140w      4 calls
| SAD Guess                         :      0.233u      0.000s      0.132w      4 calls
HF: Form G                          :   1250.033u     36.533s    773.971w     36 calls
| RV: Form V                        :   1145.633u      4.350s    691.679w     36 calls
| | Properties                      :    635.883u      3.367s    385.384w 101547 calls
| | Functional                      :     13.750u      0.050s      8.352w 101547 calls
| | V_xc                            :    494.783u      0.933s    297.488w 101547 calls
| JK: D                             :      0.017u      0.033s      0.021w     36 calls
| JK: USO2AO                        :      0.017u      0.000s      0.004w     36 calls
| JK: JK                            :    104.333u     32.133s     82.221w     36 calls
| | JK: (Q|mn) Read                 :      0.150u      4.650s      2.908w     72 calls
| | JK: J                           :      1.600u      0.200s      1.046w     72 calls
| | | JK: J1                        :      0.683u      0.117s      0.482w     72 calls
| | | JK: J2                        :      0.833u      0.017s      0.505w     72 calls
| | JK: K                           :     37.600u      0.083s     22.638w     72 calls
| | | JK: K1                        :     30.017u      0.083s     18.111w     72 calls
| | | JK: K2                        :      7.567u      0.000s      4.511w     72 calls
| | JK: (Q|mn)^L Read               :      0.167u      4.050s      2.537w    108 calls
| | JK: (Q|mn)^R Read               :      0.083u      4.117s      2.545w    108 calls
| | JK: wK                          :     62.933u      0.400s     38.170w    108 calls
| | | JK: wK1                       :     55.283u      0.350s     33.545w    216 calls
| | | JK: wK2                       :      7.650u      0.033s      4.615w    108 calls
| JK: AO2USO                        :      0.000u      0.000s      0.000w     36 calls
HF: Form F                          :      0.017u      0.017s      0.021w     36 calls
HF: Form D                          :      0.017u      0.000s      0.010w     36 calls
HF: DIIS                            :      0.883u      0.500s      0.835w     32 calls
HF: Form C                          :      2.417u      0.033s      1.482w     32 calls

**************************************************************************************

Host: germain

Timers On : Sat Sep 28 11:47:20 2024
Timers Off: Sat Sep 28 11:47:20 2024

Wall Time:        0.31 seconds

                                                       Time (seconds)
Module                                       User      System        Wall        Calls

--------------------------------------------------------------------------------------

**************************************************************************************

Host: germain

Timers On : Sat Sep 28 11:47:19 2024
Timers Off: Sat Sep 28 11:56:50 2024

Wall Time:      570.38 seconds

                                                       Time (seconds)
Module                                       User      System        Wall        Calls
V: Grid                             :      8.467u      0.117s      5.136w      4 calls
build grid                          :      7.883u      0.033s      4.734w      4 calls
post-process grid                   :      0.583u      0.083s      0.401w      4 calls
DFH: sparsity prep                  :      0.600u      0.017s      0.380w      4 calls
Libint2ERI::Libint2ERI              :      1.150u      0.017s      0.713w     20 calls
Libint2ErfERI::Libint2ErfERI        :      0.383u      0.000s      0.238w      4 calls
JK: (A|Q)^-1                        :      0.767u      1.800s      1.088w      4 calls
JK: (A|mn)                          :      8.317u      0.067s      5.034w      4 calls
JK: (Q|mn)                          :      7.950u      0.050s      4.819w      4 calls
JK: (Q|mn) Write                    :      0.000u      0.567s      0.345w      4 calls
JK: (A|mn)^L                        :      9.033u      0.050s      5.506w      4 calls
JK: (Q|mn)^L                        :      7.900u      0.167s      4.889w      4 calls
JK: (Q|mn)^L Write                  :      0.017u      0.583s      0.351w      4 calls
JK: (Q|mn)^R                        :      8.433u      0.050s      5.096w      4 calls
JK: (Q|mn)^R Write                  :      0.017u      1.350s      0.833w      4 calls
HF: Form core H                     :      0.200u      0.017s      0.137w      4 calls
HF: Form S/X                        :      0.267u      0.000s      0.158w      4 calls
HF: Guess                           :      0.233u      0.000s      0.140w      4 calls
SAD Guess                           :      0.217u      0.000s      0.133w      4 calls
HF: Form G                          :    844.300u     25.133s    522.502w     36 calls
RV: Form V                          :    761.767u      2.133s    459.080w     36 calls
Properties                          :    429.367u      1.600s    257.982w  92592 calls
Functional                          :     12.950u      0.067s      7.588w  92592 calls
V_xc                                :    318.617u      0.467s    193.122w  92592 calls
JK: D                               :      0.000u      0.017s      0.014w     36 calls
JK: USO2AO                          :      0.000u      0.000s      0.001w     36 calls
JK: JK                              :     82.500u     22.983s     63.382w     36 calls
JK: (Q|mn) Read                     :      0.117u      3.250s      2.009w     72 calls
JK: J                               :      1.167u      0.100s      0.805w     72 calls
JK: J1                              :      0.483u      0.083s      0.373w     72 calls
JK: J2                              :      0.633u      0.017s      0.398w     72 calls
JK: K                               :     28.783u      0.033s     17.327w     72 calls
JK: K1                              :     22.900u      0.017s     13.786w     72 calls
JK: K2                              :      5.883u      0.017s      3.533w     72 calls
JK: (Q|mn)^L Read                   :      0.117u      3.133s      1.968w    108 calls
JK: (Q|mn)^R Read                   :      0.050u      3.200s      1.961w    108 calls
JK: wK                              :     50.533u      0.217s     30.489w    108 calls
JK: wK1                             :     44.550u      0.200s     26.915w    216 calls
JK: wK2                             :      5.967u      0.017s      3.566w    108 calls
JK: AO2USO                          :      0.000u      0.000s      0.000w     36 calls
HF: Form F                          :      0.000u      0.000s      0.013w     36 calls
HF: Form D                          :      0.000u      0.000s      0.008w     36 calls
HF: DIIS                            :      0.867u      0.250s      0.681w     32 calls
HF: Form C                          :      1.950u      0.033s      1.163w     32 calls

--------------------------------------------------------------------------------------
V: Grid                             :      8.467u      0.117s      5.136w      4 calls
| build grid                        :      7.883u      0.033s      4.734w      4 calls
| post-process grid                 :      0.583u      0.083s      0.401w      4 calls
DFH: sparsity prep                  :      0.600u      0.017s      0.380w      4 calls
| Libint2ERI::Libint2ERI            :      0.400u      0.017s      0.251w      4 calls
Libint2ERI::Libint2ERI              :      0.750u      0.000s      0.460w     12 calls
Libint2ErfERI::Libint2ErfERI        :      0.383u      0.000s      0.238w      4 calls
JK: (A|Q)^-1                        :      0.767u      1.800s      1.088w      4 calls
| Libint2ERI::Libint2ERI            :      0.000u      0.000s      0.002w      4 calls
JK: (A|mn)                          :      8.317u      0.067s      5.034w      4 calls
JK: (Q|mn)                          :      7.950u      0.050s      4.819w      4 calls
JK: (Q|mn) Write                    :      0.000u      0.567s      0.345w      4 calls
JK: (A|mn)^L                        :      9.033u      0.050s      5.506w      4 calls
JK: (Q|mn)^L                        :      7.900u      0.167s      4.889w      4 calls
JK: (Q|mn)^L Write                  :      0.017u      0.583s      0.351w      4 calls
JK: (Q|mn)^R                        :      8.433u      0.050s      5.096w      4 calls
JK: (Q|mn)^R Write                  :      0.017u      1.350s      0.833w      4 calls
HF: Form core H                     :      0.200u      0.017s      0.137w      4 calls
HF: Form S/X                        :      0.267u      0.000s      0.158w      4 calls
HF: Guess                           :      0.233u      0.000s      0.140w      4 calls
| SAD Guess                         :      0.217u      0.000s      0.133w      4 calls
HF: Form G                          :    844.300u     25.133s    522.502w     36 calls
| RV: Form V                        :    761.767u      2.133s    459.080w     36 calls
| | Properties                      :    429.367u      1.600s    257.982w  92592 calls
| | Functional                      :     12.950u      0.067s      7.588w  92592 calls
| | V_xc                            :    318.617u      0.467s    193.122w  92592 calls
| JK: D                             :      0.000u      0.017s      0.014w     36 calls
| JK: USO2AO                        :      0.000u      0.000s      0.001w     36 calls
| JK: JK                            :     82.500u     22.983s     63.382w     36 calls
| | JK: (Q|mn) Read                 :      0.117u      3.250s      2.009w     72 calls
| | JK: J                           :      1.167u      0.100s      0.805w     72 calls
| | | JK: J1                        :      0.483u      0.083s      0.373w     72 calls
| | | JK: J2                        :      0.633u      0.017s      0.398w     72 calls
| | JK: K                           :     28.783u      0.033s     17.327w     72 calls
| | | JK: K1                        :     22.900u      0.017s     13.786w     72 calls
| | | JK: K2                        :      5.883u      0.017s      3.533w     72 calls
| | JK: (Q|mn)^L Read               :      0.117u      3.133s      1.968w    108 calls
| | JK: (Q|mn)^R Read               :      0.050u      3.200s      1.961w    108 calls
[...]
HF: Guess                           :      0.933u      0.017s      0.566w      4 calls
| SAD Guess                         :      0.883u      0.000s      0.534w      4 calls
HF: Form G                          :  11707.050u    296.883s   7217.166w     44 calls
| RV: Form V                        :   7982.133u      7.300s   4802.632w     44 calls
| | Properties                      :   4447.100u      5.133s   2677.092w 248831 calls
| | Functional                      :     38.400u      0.133s     22.572w 248831 calls
| | V_xc                            :   3492.400u      1.950s   2101.175w 248831 calls
| JK: D                             :      0.367u      0.200s      0.267w     44 calls
| JK: USO2AO                        :      0.017u      0.017s      0.026w     44 calls
| JK: JK                            :   3724.317u    289.117s   2413.859w     44 calls
| | JK: (Q|mn) Read                 :      1.350u     79.867s     50.010w    312 calls
| | JK: J                           :     31.317u      0.650s     19.339w    312 calls
| | | JK: J1                        :     14.450u      0.350s      8.818w    312 calls
| | | JK: J2                        :     15.383u      0.100s      9.494w    312 calls
| | JK: K                           :   1386.967u      2.967s    835.581w    312 calls
| | | JK: K1                        :    884.183u      2.450s    532.860w    312 calls
| | | JK: K2                        :    502.533u      0.467s    302.541w    312 calls
| | JK: (Q|mn)^L Read               :      1.083u     67.967s     41.408w    600 calls
| | JK: (Q|mn)^R Read               :      0.683u     71.333s     43.359w    600 calls
| | JK: wK                          :   2296.767u      5.933s   1384.091w    600 calls
| | | JK: wK1                       :   1788.383u      5.150s   1077.823w   1200 calls
| | | JK: wK2                       :    508.233u      0.533s    306.024w    600 calls
| JK: AO2USO                        :      0.000u      0.000s      0.000w     44 calls
HF: Form F                          :      0.133u      0.200s      0.172w     44 calls
HF: Form D                          :      0.317u      0.000s      0.174w     44 calls
HF: DIIS                            :     15.100u      3.333s     11.009w     40 calls
HF: Form C                          :     38.417u      0.050s     23.181w     40 calls

**************************************************************************************

Host: germain

Timers On : Tue Oct  1 09:16:48 2024
Timers Off: Tue Oct  1 09:16:48 2024

Wall Time:        0.32 seconds

                                                       Time (seconds)
Module                                       User      System        Wall        Calls

--------------------------------------------------------------------------------------

**************************************************************************************

Host: germain

Timers On : Tue Oct  1 09:16:47 2024
Timers Off: Tue Oct  1 09:31:06 2024

Wall Time:      859.05 seconds

                                                       Time (seconds)
Module                                       User      System        Wall        Calls
V: Grid                             :      3.333u      0.083s      2.054w      4 calls
build grid                          :      2.983u      0.017s      1.801w      4 calls
post-process grid                   :      0.350u      0.067s      0.253w      4 calls
DFH: sparsity prep                  :      1.333u      0.017s      0.825w      4 calls
Libint2ERI::Libint2ERI              :      2.667u      0.017s      1.591w     20 calls
Libint2ErfERI::Libint2ErfERI        :      1.017u      0.000s      0.609w      4 calls
JK: (A|Q)^-1                        :      3.167u      4.300s      2.701w      4 calls
JK: (A|mn)                          :     21.217u      0.100s     12.808w      4 calls
JK: (Q|mn)                          :     35.917u      0.367s     21.775w      4 calls
JK: (Q|mn) Write                    :      0.017u      1.683s      1.016w      4 calls
JK: (A|mn)^L                        :     20.833u      0.250s     12.649w      4 calls
JK: (Q|mn)^L                        :     35.733u      0.300s     21.681w      4 calls
JK: (Q|mn)^L Write                  :      0.000u      1.517s      0.917w      4 calls
JK: (Q|mn)^R                        :     20.833u      0.017s     12.533w      4 calls
JK: (Q|mn)^R Write                  :      0.033u      3.567s      2.165w      4 calls
HF: Form core H                     :      0.350u      0.017s      0.224w      4 calls
HF: Form S/X                        :      0.483u      0.050s      0.303w      4 calls
HF: Guess                           :      0.417u      0.000s      0.274w      4 calls
SAD Guess                           :      0.400u      0.000s      0.263w      4 calls
HF: Form G                          :   1175.950u     71.383s    748.944w     40 calls
RV: Form V                          :    812.067u      2.217s    488.905w     40 calls
Properties                          :    445.417u      1.683s    269.834w  78620 calls
Functional                          :     10.417u      0.117s      6.322w  78620 calls
V_xc                                :    355.183u      0.417s    212.403w  78620 calls
JK: D                               :      0.083u      0.000s      0.038w     40 calls
JK: USO2AO                          :      0.000u      0.000s      0.003w     40 calls
JK: JK                              :    363.750u     69.167s    259.945w     40 calls
JK: (Q|mn) Read                     :      0.167u      9.050s      5.521w     80 calls
JK: J                               :      3.617u      0.067s      2.253w     80 calls
JK: J1                              :      1.733u      0.050s      1.060w     80 calls
JK: J2                              :      1.817u      0.000s      1.114w     80 calls
JK: K                               :    138.000u      0.250s     82.990w     80 calls
JK: K1                              :     93.750u      0.167s     56.391w     80 calls
JK: K2                              :     44.217u      0.083s     26.582w     80 calls
JK: (Q|mn)^L Read                   :      0.183u      9.183s      5.608w    120 calls
JK: (Q|mn)^R Read                   :      0.250u      8.667s      5.319w    120 calls
JK: wK                              :    217.200u      0.667s    130.804w    120 calls
JK: wK1                             :    172.283u      0.533s    103.784w    240 calls
JK: wK2                             :     44.883u      0.133s     27.007w    120 calls
JK: AO2USO                          :      0.000u      0.000s      0.000w     40 calls
HF: Form F                          :      0.033u      0.017s      0.026w     40 calls
HF: Form D                          :      0.000u      0.000s      0.027w     40 calls
HF: DIIS                            :      1.600u      0.517s      1.231w     36 calls
HF: Form C                          :      3.750u      0.017s      2.263w     36 calls

--------------------------------------------------------------------------------------
V: Grid                             :      3.333u      0.083s      2.054w      4 calls
| build grid                        :      2.983u      0.017s      1.801w      4 calls
| post-process grid                 :      0.350u      0.067s      0.253w      4 calls
DFH: sparsity prep                  :      1.333u      0.017s      0.825w      4 calls
| Libint2ERI::Libint2ERI            :      0.900u      0.017s      0.547w      4 calls
Libint2ERI::Libint2ERI              :      1.767u      0.000s      1.042w     12 calls
Libint2ErfERI::Libint2ErfERI        :      1.017u      0.000s      0.609w      4 calls
JK: (A|Q)^-1                        :      3.167u      4.300s      2.701w      4 calls
| Libint2ERI::Libint2ERI            :      0.000u      0.000s      0.002w      4 calls
JK: (A|mn)                          :     21.217u      0.100s     12.808w      4 calls
JK: (Q|mn)                          :     35.917u      0.367s     21.775w      4 calls
JK: (Q|mn) Write                    :      0.017u      1.683s      1.016w      4 calls
JK: (A|mn)^L                        :     20.833u      0.250s     12.649w      4 calls
JK: (Q|mn)^L                        :     35.733u      0.300s     21.681w      4 calls
JK: (Q|mn)^L Write                  :      0.000u      1.517s      0.917w      4 calls
JK: (Q|mn)^R                        :     20.833u      0.017s     12.533w      4 calls
JK: (Q|mn)^R Write                  :      0.033u      3.567s      2.165w      4 calls
HF: Form core H                     :      0.350u      0.017s      0.224w      4 calls
HF: Form S/X                        :      0.483u      0.050s      0.303w      4 calls
HF: Guess                           :      0.417u      0.000s      0.274w      4 calls
| SAD Guess                         :      0.400u      0.000s      0.263w      4 calls
HF: Form G                          :   1175.950u     71.383s    748.944w     40 calls
| RV: Form V                        :    812.067u      2.217s    488.905w     40 calls
| | Properties                      :    445.417u      1.683s    269.834w  78620 calls
| | Functional                      :     10.417u      0.117s      6.322w  78620 calls
| | V_xc                            :    355.183u      0.417s    212.403w  78620 calls
| JK: D                             :      0.083u      0.000s      0.038w     40 calls
| JK: USO2AO                        :      0.000u      0.000s      0.003w     40 calls
| JK: JK                            :    363.750u     69.167s    259.945w     40 calls
| | JK: (Q|mn) Read                 :      0.167u      9.050s      5.521w     80 calls
| | JK: J                           :      3.617u      0.067s      2.253w     80 calls
| | | JK: J1                        :      1.733u      0.050s      1.060w     80 calls
| | | JK: J2                        :      1.817u      0.000s      1.114w     80 calls
| | JK: K                           :    138.000u      0.250s     82.990w     80 calls
| | | JK: K1                        :     93.750u      0.167s     56.391w     80 calls
| | | JK: K2                        :     44.217u      0.083s     26.582w     80 calls
| | JK: (Q|mn)^L Read               :      0.183u      9.183s      5.608w    120 calls
| | JK: (Q|mn)^R Read               :      0.250u      8.667s      5.319w    120 calls
| | JK: wK                          :    217.200u      0.667s    130.804w    120 calls
| | | JK: wK1                       :    172.283u      0.533s    103.784w    240 calls
| | | JK: wK2                       :     44.883u      0.133s     27.007w    120 calls
| JK: AO2USO                        :      0.000u      0.000s      0.000w     40 calls
HF: Form F                          :      0.033u      0.017s      0.026w     40 calls
HF: Form D                          :      0.000u      0.000s      0.027w     40 calls
HF: DIIS                            :      1.600u      0.517s      1.231w     36 calls
HF: Form C                          :      3.750u      0.017s      2.263w     36 calls

**************************************************************************************

Host: germain

Timers On : Tue Oct  1 10:15:02 2024
Timers Off: Tue Oct  1 10:15:02 2024

Wall Time:        0.33 seconds

                                                       Time (seconds)
Module                                       User      System        Wall        Calls

--------------------------------------------------------------------------------------

**************************************************************************************

Host: germain

Timers On : Tue Oct  1 10:15:01 2024
Timers Off: Tue Oct  1 13:25:03 2024

Wall Time:    11401.84 seconds

                                                       Time (seconds)
Module                                       User      System        Wall        Calls
V: Grid                             :     37.233u      0.317s     22.561w      4 calls
build grid                          :     35.383u      0.200s     21.391w      4 calls
post-process grid                   :      1.850u      0.117s      1.168w      4 calls
DFH: sparsity prep                  :      8.400u      0.167s      5.149w      4 calls
Libint2ERI::Libint2ERI              :     16.567u      0.167s     10.034w     20 calls
Libint2ErfERI::Libint2ErfERI        :      6.250u      0.033s      3.770w      4 calls
JK: (A|Q)^-1                        :     29.917u     58.017s     34.699w      4 calls
JK: (A|mn)                          :    284.367u      1.300s    171.468w     44 calls
JK: (Q|mn)                          :    976.917u      3.083s    588.357w     44 calls
JK: (Q|mn) Write                    :      0.250u     22.350s     13.545w     44 calls
JK: (A|mn)^L                        :    284.283u      1.200s    171.417w     44 calls
JK: (Q|mn)^L                        :    977.950u      3.467s    589.160w     44 calls
JK: (Q|mn)^L Write                  :      0.383u     23.267s     14.214w     44 calls
JK: (Q|mn)^R                        :    279.733u      1.733s    169.011w     40 calls
JK: (Q|mn)^R Write                  :      0.133u     45.917s     27.665w     40 calls
HF: Form core H                     :      4.250u      0.183s      2.639w      4 calls
HF: Form S/X                        :      5.900u      0.150s      3.660w      4 calls
HF: Guess                           :      1.300u      0.067s      0.830w      4 calls
SAD Guess                           :      1.300u      0.050s      0.789w      4 calls
HF: Form G                          :  15442.600u    363.283s   9491.291w     36 calls
RV: Form V                          :   7751.733u      7.233s   4659.258w     36 calls
Properties                          :   4263.117u      5.217s   2565.222w 165987 calls
Functional                          :     27.450u      0.050s     16.210w 165987 calls
V_xc                                :   3457.000u      1.833s   2076.060w 165987 calls
JK: D                               :      0.450u      0.200s      0.387w     36 calls
JK: USO2AO                          :      0.033u      0.017s      0.034w     36 calls
JK: JK                              :   7689.983u    355.283s   4831.135w     36 calls
JK: (Q|mn) Read                     :      1.250u    102.467s     62.323w    468 calls
JK: J                               :     45.983u      1.150s     28.135w    468 calls
JK: J1                              :     20.183u      0.283s     12.433w    468 calls
JK: J2                              :     22.667u      0.083s     13.519w    468 calls
JK: K                               :   2839.333u      7.317s   1709.378w    468 calls
JK: K1                              :   1732.017u      6.283s   1043.768w    468 calls
JK: K2                              :   1106.867u      0.933s    665.279w    468 calls
JK: (Q|mn)^L Read                   :      1.833u     95.100s     58.323w    904 calls
JK: (Q|mn)^R Read                   :      1.100u     92.217s     55.994w    904 calls
JK: wK                              :   4794.950u     14.967s   2888.423w    904 calls
JK: wK1                             :   3674.867u     11.850s   2213.831w   1808 calls
JK: wK2                             :   1119.767u      2.583s    674.071w    904 calls
JK: AO2USO                          :      0.000u      0.000s      0.000w     36 calls
HF: Form F                          :      0.117u      0.250s      0.191w     36 calls
HF: Form D                          :      0.417u      0.083s      0.304w     36 calls
HF: DIIS                            :     17.667u      4.083s     13.044w     32 calls
HF: Form C                          :     44.283u      0.283s     26.783w     32 calls

--------------------------------------------------------------------------------------
V: Grid                             :     37.233u      0.317s     22.561w      4 calls
| build grid                        :     35.383u      0.200s     21.391w      4 calls
| post-process grid                 :      1.850u      0.117s      1.168w      4 calls
DFH: sparsity prep                  :      8.400u      0.167s      5.149w      4 calls
| Libint2ERI::Libint2ERI            :      5.550u      0.117s      3.406w      4 calls
Libint2ERI::Libint2ERI              :     11.017u      0.050s      6.626w     12 calls
Libint2ErfERI::Libint2ErfERI        :      6.250u      0.033s      3.770w      4 calls
JK: (A|Q)^-1                        :     29.917u     58.017s     34.699w      4 calls
| Libint2ERI::Libint2ERI            :      0.000u      0.000s      0.003w      4 calls
JK: (A|mn)                          :    284.367u      1.300s    171.468w     44 calls
JK: (Q|mn)                          :    976.917u      3.083s    588.357w     44 calls
JK: (Q|mn) Write                    :      0.250u     22.350s     13.545w     44 calls
JK: (A|mn)^L                        :    284.283u      1.200s    171.417w     44 calls
JK: (Q|mn)^L                        :    977.950u      3.467s    589.160w     44 calls
JK: (Q|mn)^L Write                  :      0.383u     23.267s     14.214w     44 calls
JK: (Q|mn)^R                        :    279.733u      1.733s    169.011w     40 calls
JK: (Q|mn)^R Write                  :      0.133u     45.917s     27.665w     40 calls
HF: Form core H                     :      4.250u      0.183s      2.639w      4 calls
HF: Form S/X                        :      5.900u      0.150s      3.660w      4 calls
HF: Guess                           :      1.300u      0.067s      0.830w      4 calls
| SAD Guess                         :      1.300u      0.050s      0.789w      4 calls
HF: Form G                          :  15442.600u    363.283s   9491.291w     36 calls
| RV: Form V                        :   7751.733u      7.233s   4659.258w     36 calls
| | Properties                      :   4263.117u      5.217s   2565.222w 165987 calls
| | Functional                      :     27.450u      0.050s     16.210w 165987 calls
| | V_xc                            :   3457.000u      1.833s   2076.060w 165987 calls
| JK: D                             :      0.450u      0.200s      0.387w     36 calls
| JK: USO2AO                        :      0.033u      0.017s      0.034w     36 calls
| JK: JK                            :   7689.983u    355.283s   4831.135w     36 calls
| | JK: (Q|mn) Read                 :      1.250u    102.467s     62.323w    468 calls
| | JK: J                           :     45.983u      1.150s     28.135w    468 calls
| | | JK: J1                        :     20.183u      0.283s     12.433w    468 calls
| | | JK: J2                        :     22.667u      0.083s     13.519w    468 calls
| | JK: K                           :   2839.333u      7.317s   1709.378w    468 calls
| | | JK: K1                        :   1732.017u      6.283s   1043.768w    468 calls
| | | JK: K2                        :   1106.867u      0.933s    665.279w    468 calls
| | JK: (Q|mn)^L Read               :      1.833u     95.100s     58.323w    904 calls
| | JK: (Q|mn)^R Read               :      1.100u     92.217s     55.994w    904 calls
| | JK: wK                          :   4794.950u     14.967s   2888.423w    904 calls
| | | JK: wK1                       :   3674.867u     11.850s   2213.831w   1808 calls
| | | JK: wK2                       :   1119.767u      2.583s    674.071w    904 calls
| JK: AO2USO                        :      0.000u      0.000s      0.000w     36 calls
HF: Form F                          :      0.117u      0.250s      0.191w     36 calls
HF: Form D                          :      0.417u      0.083s      0.304w     36 calls
HF: DIIS                            :     17.667u      4.083s     13.044w     32 calls
HF: Form C                          :     44.283u      0.283s     26.783w     32 calls

**************************************************************************************
