
Host: germain

Timers On : Tue Sep 10 13:30:11 2024
Timers Off: Tue Sep 10 13:30:11 2024

Wall Time:        0.06 seconds

                                                       Time (seconds)
Module                                       User      System        Wall        Calls

--------------------------------------------------------------------------------------

**************************************************************************************

Host: germain

Timers On : Tue Sep 10 13:56:53 2024
Timers Off: Tue Sep 10 13:56:53 2024

Wall Time:        0.49 seconds

                                                       Time (seconds)
Module                                       User      System        Wall        Calls

--------------------------------------------------------------------------------------

**************************************************************************************

Host: germain

Timers On : Tue Sep 10 13:57:32 2024
Timers Off: Tue Sep 10 13:57:32 2024

Wall Time:        0.41 seconds

                                                       Time (seconds)
Module                                       User      System        Wall        Calls

--------------------------------------------------------------------------------------

**************************************************************************************

Host: germain

Timers On : Tue Sep 10 13:58:09 2024
Timers Off: Tue Sep 10 13:58:09 2024

Wall Time:        0.42 seconds

                                                       Time (seconds)
Module                                       User      System        Wall        Calls

--------------------------------------------------------------------------------------

**************************************************************************************

Host: germain

Timers On : Tue Sep 10 13:59:08 2024
Timers Off: Tue Sep 10 13:59:08 2024

Wall Time:        0.36 seconds

                                                       Time (seconds)
Module                                       User      System        Wall        Calls

--------------------------------------------------------------------------------------

**************************************************************************************

Host: germain

Timers On : Tue Sep 10 14:02:10 2024
Timers Off: Tue Sep 10 14:03:55 2024

Wall Time:      104.62 seconds

                                                       Time (seconds)
Module                                       User      System        Wall        Calls
V: Grid                             :      6.667u      0.100s      4.076w      2 calls
build grid                          :      6.267u      0.050s      3.818w      2 calls
post-process grid                   :      0.400u      0.050s      0.258w      2 calls
DFH: sparsity prep                  :      0.217u      0.017s      0.138w      2 calls
Libint2ERI::Libint2ERI              :      0.550u      0.017s      0.329w     12 calls
JK: (A|Q)^-1                        :      2.250u      0.550s      1.411w      2 calls
JK: (A|mn)                          :      4.433u      0.000s      2.665w      2 calls
JK: (Q|mn)                          :      6.833u      0.017s      4.101w      2 calls
JK: (Q|mn) Write                    :      0.017u      0.217s      0.143w      2 calls
HF: Form core H                     :      0.150u      0.033s      0.097w      2 calls
HF: Form S/X                        :      0.050u      0.000s      0.033w      2 calls
HF: Guess                           :      0.083u      0.000s      0.061w      2 calls
SAD Guess                           :      0.067u      0.000s      0.060w      2 calls
HF: Form G                          :    124.883u      7.917s     76.417w     26 calls
RV: Form V                          :     97.417u      0.850s     55.610w     26 calls
Properties                          :     54.067u      0.517s     31.142w  87183 calls
Functional                          :     11.717u      0.150s      6.533w  87183 calls
V_xc                                :     33.917u      0.150s     19.740w  83954 calls
JK: D                               :      0.017u      0.000s      0.006w     26 calls
JK: USO2AO                          :      0.000u      0.000s      0.000w     26 calls
JK: JK                              :     27.450u      7.050s     20.792w     26 calls
JK: (Q|mn) Read                     :      0.083u      1.900s      1.208w     52 calls
JK: J                               :      0.850u      0.117s      0.513w     52 calls
JK: J1                              :      0.417u      0.067s      0.246w     52 calls
JK: J2                              :      0.433u      0.017s      0.253w     52 calls
JK: K                               :     26.033u      0.000s     15.716w     52 calls
JK: K1                              :     17.467u      0.000s     10.507w     52 calls
JK: K2                              :      8.567u      0.000s      5.207w     52 calls
JK: AO2USO                          :      0.000u      0.000s      0.000w     26 calls
HF: Form F                          :      0.000u      0.000s      0.003w     26 calls
HF: Form D                          :      0.000u      0.000s      0.005w     26 calls
HF: DIIS                            :      1.667u      0.183s      0.292w     24 calls
HF: Form C                          :      2.250u      0.000s      0.321w     24 calls
Grad: V T Perturb                   :      0.133u      0.000s      0.079w      1 calls
Grad: S                             :      0.017u      0.000s      0.005w      1 calls
Grad: JK                            :     15.083u      0.550s      9.380w      1 calls
JKGrad: Amn                         :      3.400u      0.217s      2.165w      1 calls
JKGrad: Awmn                        :      0.000u      0.000s      0.000w      1 calls
JKGrad: AB                          :      1.367u      0.050s      0.859w      1 calls
JKGrad: UV                          :      0.217u      0.067s      0.165w      1 calls
JKGrad: ABx                         :      0.133u      0.000s      0.081w      1 calls
JKGrad: Amnx                        :      9.967u      0.200s      6.105w      1 calls
Grad: XC                            :      6.150u      0.017s      3.699w      1 calls
V_xc gradient                       :      2.617u      0.017s      1.607w   3229 calls

--------------------------------------------------------------------------------------
V: Grid                             :      6.667u      0.100s      4.076w      2 calls
| build grid                        :      6.267u      0.050s      3.818w      2 calls
| post-process grid                 :      0.400u      0.050s      0.258w      2 calls
DFH: sparsity prep                  :      0.217u      0.017s      0.138w      2 calls
| Libint2ERI::Libint2ERI            :      0.150u      0.017s      0.098w      2 calls
Libint2ERI::Libint2ERI              :      0.267u      0.000s      0.152w      4 calls
JK: (A|Q)^-1                        :      2.250u      0.550s      1.411w      2 calls
| Libint2ERI::Libint2ERI            :      0.000u      0.000s      0.000w      2 calls
JK: (A|mn)                          :      4.433u      0.000s      2.665w      2 calls
JK: (Q|mn)                          :      6.833u      0.017s      4.101w      2 calls
JK: (Q|mn) Write                    :      0.017u      0.217s      0.143w      2 calls
HF: Form core H                     :      0.150u      0.033s      0.097w      2 calls
HF: Form S/X                        :      0.050u      0.000s      0.033w      2 calls
HF: Guess                           :      0.083u      0.000s      0.061w      2 calls
| SAD Guess                         :      0.067u      0.000s      0.060w      2 calls
HF: Form G                          :    124.883u      7.917s     76.417w     26 calls
| RV: Form V                        :     97.417u      0.850s     55.610w     26 calls
| | Properties                      :     50.850u      0.517s     29.305w  83954 calls
| | Functional                      :     11.400u      0.150s      6.292w  83954 calls
| | V_xc                            :     33.917u      0.150s     19.740w  83954 calls
| JK: D                             :      0.017u      0.000s      0.006w     26 calls
| JK: USO2AO                        :      0.000u      0.000s      0.000w     26 calls
| JK: JK                            :     27.450u      7.050s     20.792w     26 calls
| | JK: (Q|mn) Read                 :      0.083u      1.900s      1.208w     52 calls
| | JK: J                           :      0.850u      0.117s      0.513w     52 calls
| | | JK: J1                        :      0.417u      0.067s      0.246w     52 calls
| | | JK: J2                        :      0.433u      0.017s      0.253w     52 calls
| | JK: K                           :     26.033u      0.000s     15.716w     52 calls
| | | JK: K1                        :     17.467u      0.000s     10.507w     52 calls
| | | JK: K2                        :      8.567u      0.000s      5.207w     52 calls
| JK: AO2USO                        :      0.000u      0.000s      0.000w     26 calls
HF: Form F                          :      0.000u      0.000s      0.003w     26 calls
HF: Form D                          :      0.000u      0.000s      0.005w     26 calls
HF: DIIS                            :      1.667u      0.183s      0.292w     24 calls
HF: Form C                          :      2.250u      0.000s      0.321w     24 calls
Grad: V T Perturb                   :      0.133u      0.000s      0.079w      1 calls
Grad: S                             :      0.017u      0.000s      0.005w      1 calls
Grad: JK                            :     15.083u      0.550s      9.380w      1 calls
| JKGrad: Amn                       :      3.400u      0.217s      2.165w      1 calls
| | Libint2ERI::Libint2ERI          :      0.067u      0.000s      0.038w      1 calls
| JKGrad: Awmn                      :      0.000u      0.000s      0.000w      1 calls
| JKGrad: AB                        :      1.367u      0.050s      0.859w      1 calls
| | Libint2ERI::Libint2ERI          :      0.000u      0.000s      0.000w      1 calls
| JKGrad: UV                        :      0.217u      0.067s      0.165w      1 calls
| JKGrad: ABx                       :      0.133u      0.000s      0.081w      1 calls
| | Libint2ERI::Libint2ERI          :      0.000u      0.000s      0.000w      1 calls
| JKGrad: Amnx                      :      9.967u      0.200s      6.105w      1 calls
| | Libint2ERI::Libint2ERI          :      0.067u      0.000s      0.040w      1 calls
Grad: XC                            :      6.150u      0.017s      3.699w      1 calls
| Properties                        :      3.217u      0.000s      1.837w   3229 calls
| Functional                        :      0.317u      0.000s      0.241w   3229 calls
| V_xc gradient                     :      2.617u      0.017s      1.607w   3229 calls

**************************************************************************************

Host: germain

Timers On : Tue Sep 10 14:04:38 2024
Timers Off: Tue Sep 10 14:04:39 2024

Wall Time:        0.40 seconds

                                                       Time (seconds)
Module                                       User      System        Wall        Calls

--------------------------------------------------------------------------------------

**************************************************************************************

Host: germain

Timers On : Tue Sep 10 14:04:55 2024
Timers Off: Tue Sep 10 14:04:56 2024

Wall Time:        0.47 seconds

                                                       Time (seconds)
Module                                       User      System        Wall        Calls

--------------------------------------------------------------------------------------

**************************************************************************************

Host: germain

Timers On : Tue Sep 10 14:05:40 2024
Timers Off: Tue Sep 10 14:05:41 2024

Wall Time:        0.50 seconds

                                                       Time (seconds)
Module                                       User      System        Wall        Calls

--------------------------------------------------------------------------------------

**************************************************************************************

Host: germain

Timers On : Tue Sep 10 14:13:13 2024
Timers Off: Tue Sep 10 14:14:34 2024

Wall Time:       81.50 seconds

                                                       Time (seconds)
Module                                       User      System        Wall        Calls
V: Grid                             :      6.717u      0.050s      4.068w      2 calls
build grid                          :      6.317u      0.033s      3.817w      2 calls
post-process grid                   :      0.400u      0.017s      0.251w      2 calls
DFH: sparsity prep                  :      0.733u      0.000s      0.439w      2 calls
Libint2ERI::Libint2ERI              :      1.667u      0.017s      1.020w     12 calls
JK: (A|Q)^-1                        :      1.467u      0.350s      0.915w      2 calls
JK: (A|mn)                          :      4.733u      0.000s      2.850w      2 calls
JK: (Q|mn)                          :      3.400u      0.017s      2.053w      2 calls
JK: (Q|mn) Write                    :      0.000u      0.117s      0.086w      2 calls
HF: Form core H                     :      0.200u      0.000s      0.124w      2 calls
HF: Form S/X                        :      0.033u      0.000s      0.018w      2 calls
HF: Guess                           :      0.083u      0.017s      0.064w      2 calls
SAD Guess                           :      0.083u      0.017s      0.063w      2 calls
HF: Form G                          :     96.683u      5.567s     58.123w     29 calls
RV: Form V                          :     95.800u      0.767s     54.723w     29 calls
Properties                          :     54.350u      0.500s     31.864w  96540 calls
Functional                          :      9.983u      0.050s      5.279w  96540 calls
V_xc                                :     33.417u      0.250s     19.178w  93322 calls
JK: D                               :      0.000u      0.000s      0.004w     29 calls
JK: USO2AO                          :      0.000u      0.000s      0.000w     29 calls
JK: JK                              :      0.867u      4.800s      3.390w     29 calls
JK: (Q|mn) Read                     :      0.083u      1.283s      0.819w     58 calls
JK: J                               :      0.517u      0.033s      0.331w     58 calls
JK: J1                              :      0.183u      0.017s      0.159w     58 calls
JK: J2                              :      0.300u      0.017s      0.162w     58 calls
JK: AO2USO                          :      0.000u      0.000s      0.000w     29 calls
HF: Form F                          :      0.000u      0.000s      0.002w     29 calls
HF: Form D                          :      0.000u      0.000s      0.004w     29 calls
HF: DIIS                            :      2.600u      0.100s      0.240w     27 calls
HF: Form C                          :      1.217u      0.033s      0.206w     27 calls
Grad: V T Perturb                   :      0.150u      0.000s      0.089w      1 calls
Grad: S                             :      0.000u      0.000s      0.005w      1 calls
Grad: JK                            :     10.400u      0.200s      6.365w      1 calls
JKGrad: Amn                         :      2.633u      0.200s      1.704w      1 calls
JKGrad: Awmn                        :      0.000u      0.000s      0.000w      1 calls
JKGrad: AB                          :      0.717u      0.000s      0.435w      1 calls
JKGrad: UV                          :      0.000u      0.000s      0.000w      1 calls
JKGrad: ABx                         :      0.100u      0.000s      0.055w      1 calls
JKGrad: Amnx                        :      6.950u      0.000s      4.169w      1 calls
Grad: XC                            :      5.550u      0.067s      3.366w      1 calls
V_xc gradient                       :      2.650u      0.033s      1.451w   3218 calls

--------------------------------------------------------------------------------------
V: Grid                             :      6.717u      0.050s      4.068w      2 calls
| build grid                        :      6.317u      0.033s      3.817w      2 calls
| post-process grid                 :      0.400u      0.017s      0.251w      2 calls
DFH: sparsity prep                  :      0.733u      0.000s      0.439w      2 calls
| Libint2ERI::Libint2ERI            :      0.450u      0.000s      0.286w      2 calls
Libint2ERI::Libint2ERI              :      0.850u      0.017s      0.518w      4 calls
JK: (A|Q)^-1                        :      1.467u      0.350s      0.915w      2 calls
| Libint2ERI::Libint2ERI            :      0.000u      0.000s      0.000w      2 calls
JK: (A|mn)                          :      4.733u      0.000s      2.850w      2 calls
JK: (Q|mn)                          :      3.400u      0.017s      2.053w      2 calls
JK: (Q|mn) Write                    :      0.000u      0.117s      0.086w      2 calls
HF: Form core H                     :      0.200u      0.000s      0.124w      2 calls
HF: Form S/X                        :      0.033u      0.000s      0.018w      2 calls
HF: Guess                           :      0.083u      0.017s      0.064w      2 calls
| SAD Guess                         :      0.083u      0.017s      0.063w      2 calls
HF: Form G                          :     96.683u      5.567s     58.123w     29 calls
| RV: Form V                        :     95.800u      0.767s     54.723w     29 calls
| | Properties                      :     51.933u      0.467s     30.138w  93322 calls
| | Functional                      :      9.550u      0.050s      5.102w  93322 calls
| | V_xc                            :     33.417u      0.250s     19.178w  93322 calls
| JK: D                             :      0.000u      0.000s      0.004w     29 calls
| JK: USO2AO                        :      0.000u      0.000s      0.000w     29 calls
| JK: JK                            :      0.867u      4.800s      3.390w     29 calls
| | JK: (Q|mn) Read                 :      0.083u      1.283s      0.819w     58 calls
| | JK: J                           :      0.517u      0.033s      0.331w     58 calls
| | | JK: J1                        :      0.183u      0.017s      0.159w     58 calls
| | | JK: J2                        :      0.300u      0.017s      0.162w     58 calls
| JK: AO2USO                        :      0.000u      0.000s      0.000w     29 calls
HF: Form F                          :      0.000u      0.000s      0.002w     29 calls
HF: Form D                          :      0.000u      0.000s      0.004w     29 calls
HF: DIIS                            :      2.600u      0.100s      0.240w     27 calls
HF: Form C                          :      1.217u      0.033s      0.206w     27 calls
Grad: V T Perturb                   :      0.150u      0.000s      0.089w      1 calls
Grad: S                             :      0.000u      0.000s      0.005w      1 calls
Grad: JK                            :     10.400u      0.200s      6.365w      1 calls
| JKGrad: Amn                       :      2.633u      0.200s      1.704w      1 calls
| | Libint2ERI::Libint2ERI          :      0.183u      0.000s      0.108w      1 calls
| JKGrad: Awmn                      :      0.000u      0.000s      0.000w      1 calls
| JKGrad: AB                        :      0.717u      0.000s      0.435w      1 calls
| | Libint2ERI::Libint2ERI          :      0.000u      0.000s      0.000w      1 calls
| JKGrad: UV                        :      0.000u      0.000s      0.000w      1 calls
| JKGrad: ABx                       :      0.100u      0.000s      0.055w      1 calls
| | Libint2ERI::Libint2ERI          :      0.000u      0.000s      0.000w      1 calls
| JKGrad: Amnx                      :      6.950u      0.000s      4.169w      1 calls
| | Libint2ERI::Libint2ERI          :      0.183u      0.000s      0.107w      1 calls
Grad: XC                            :      5.550u      0.067s      3.366w      1 calls
| Properties                        :      2.417u      0.033s      1.726w   3218 calls
| Functional                        :      0.433u      0.000s      0.177w   3218 calls
| V_xc gradient                     :      2.650u      0.033s      1.451w   3218 calls

**************************************************************************************

Host: germain

Timers On : Tue Sep 10 15:04:10 2024
Timers Off: Tue Sep 10 15:04:40 2024

Wall Time:       30.59 seconds

                                                       Time (seconds)
Module                                       User      System        Wall        Calls
V: Grid                             :      2.283u      0.050s      1.405w      1 calls
build grid                          :      2.083u      0.033s      1.279w      1 calls
post-process grid                   :      0.200u      0.017s      0.125w      1 calls
DFH: sparsity prep                  :      0.350u      0.000s      0.221w      1 calls
Libint2ERI::Libint2ERI              :      0.617u      0.000s      0.379w      4 calls
JK: (A|Q)^-1                        :      0.750u      0.150s      0.452w      1 calls
JK: (A|mn)                          :      2.517u      0.000s      1.513w      1 calls
JK: (Q|mn)                          :      1.800u      0.000s      1.076w      1 calls
JK: (Q|mn) Write                    :      0.000u      0.050s      0.036w      1 calls
HF: Form core H                     :      0.100u      0.000s      0.064w      1 calls
HF: Form S/X                        :      0.017u      0.000s      0.010w      1 calls
HF: Guess                           :      0.050u      0.000s      0.033w      1 calls
SAD Guess                           :      0.050u      0.000s      0.032w      1 calls
HF: Form G                          :     44.267u      1.950s     24.331w     12 calls
RV: Form V                          :     43.900u      0.383s     23.147w     12 calls
Properties                          :     24.183u      0.183s     12.783w  38928 calls
Functional                          :      4.167u      0.033s      2.155w  38928 calls
V_xc                                :     14.700u      0.167s      8.085w  38928 calls
JK: D                               :      0.000u      0.000s      0.002w     12 calls
JK: USO2AO                          :      0.000u      0.000s      0.000w     12 calls
JK: JK                              :      0.367u      1.567s      1.179w     12 calls
JK: (Q|mn) Read                     :      0.050u      0.400s      0.290w     24 calls
JK: J                               :      0.183u      0.083s      0.139w     24 calls
JK: J1                              :      0.100u      0.067s      0.067w     24 calls
JK: J2                              :      0.083u      0.017s      0.068w     24 calls
JK: AO2USO                          :      0.000u      0.000s      0.000w     12 calls
HF: Form F                          :      0.000u      0.000s      0.001w     12 calls
HF: Form D                          :      0.000u      0.000s      0.001w     12 calls
HF: DIIS                            :      1.833u      0.017s      0.119w     11 calls
HF: Form C                          :      1.367u      0.000s      0.088w     11 calls

--------------------------------------------------------------------------------------
V: Grid                             :      2.283u      0.050s      1.405w      1 calls
| build grid                        :      2.083u      0.033s      1.279w      1 calls
| post-process grid                 :      0.200u      0.017s      0.125w      1 calls
DFH: sparsity prep                  :      0.350u      0.000s      0.221w      1 calls
| Libint2ERI::Libint2ERI            :      0.233u      0.000s      0.145w      1 calls
Libint2ERI::Libint2ERI              :      0.383u      0.000s      0.234w      2 calls
JK: (A|Q)^-1                        :      0.750u      0.150s      0.452w      1 calls
| Libint2ERI::Libint2ERI            :      0.000u      0.000s      0.000w      1 calls
JK: (A|mn)                          :      2.517u      0.000s      1.513w      1 calls
JK: (Q|mn)                          :      1.800u      0.000s      1.076w      1 calls
JK: (Q|mn) Write                    :      0.000u      0.050s      0.036w      1 calls
HF: Form core H                     :      0.100u      0.000s      0.064w      1 calls
HF: Form S/X                        :      0.017u      0.000s      0.010w      1 calls
HF: Guess                           :      0.050u      0.000s      0.033w      1 calls
| SAD Guess                         :      0.050u      0.000s      0.032w      1 calls
HF: Form G                          :     44.267u      1.950s     24.331w     12 calls
| RV: Form V                        :     43.900u      0.383s     23.147w     12 calls
| | Properties                      :     24.183u      0.183s     12.783w  38928 calls
| | Functional                      :      4.167u      0.033s      2.155w  38928 calls
| | V_xc                            :     14.700u      0.167s      8.085w  38928 calls
| JK: D                             :      0.000u      0.000s      0.002w     12 calls
| JK: USO2AO                        :      0.000u      0.000s      0.000w     12 calls
| JK: JK                            :      0.367u      1.567s      1.179w     12 calls
| | JK: (Q|mn) Read                 :      0.050u      0.400s      0.290w     24 calls
| | JK: J                           :      0.183u      0.083s      0.139w     24 calls
| | | JK: J1                        :      0.100u      0.067s      0.067w     24 calls
| | | JK: J2                        :      0.083u      0.017s      0.068w     24 calls
| JK: AO2USO                        :      0.000u      0.000s      0.000w     12 calls
HF: Form F                          :      0.000u      0.000s      0.001w     12 calls
HF: Form D                          :      0.000u      0.000s      0.001w     12 calls
HF: DIIS                            :      1.833u      0.017s      0.119w     11 calls
HF: Form C                          :      1.367u      0.000s      0.088w     11 calls

**************************************************************************************

Host: germain

Timers On : Wed Sep 11 11:57:08 2024
Timers Off: Wed Sep 11 11:57:37 2024

Wall Time:       29.54 seconds

                                                       Time (seconds)
Module                                       User      System        Wall        Calls
V: Grid                             :      2.133u      0.067s      1.318w      1 calls
build grid                          :      1.950u      0.033s      1.185w      1 calls
post-process grid                   :      0.183u      0.033s      0.133w      1 calls
DFH: sparsity prep                  :      0.367u      0.017s      0.221w      1 calls
Libint2ERI::Libint2ERI              :      0.700u      0.017s      0.424w      4 calls
JK: (A|Q)^-1                        :      0.700u      0.167s      0.442w      1 calls
JK: (A|mn)                          :      2.300u      0.000s      1.372w      1 calls
JK: (Q|mn)                          :      1.683u      0.000s      1.010w      1 calls
JK: (Q|mn) Write                    :      0.000u      0.067s      0.040w      1 calls
HF: Form core H                     :      0.117u      0.000s      0.062w      1 calls
HF: Form S/X                        :      0.000u      0.000s      0.009w      1 calls
HF: Guess                           :      0.050u      0.017s      0.034w      1 calls
SAD Guess                           :      0.033u      0.017s      0.033w      1 calls
HF: Form G                          :     43.267u      2.083s     23.551w     12 calls
RV: Form V                          :     42.883u      0.483s     22.348w     12 calls
Properties                          :     22.667u      0.300s     12.355w  38988 calls
Functional                          :      4.400u      0.033s      2.125w  38988 calls
V_xc                                :     15.133u      0.150s      7.747w  38988 calls
JK: D                               :      0.000u      0.000s      0.002w     12 calls
JK: USO2AO                          :      0.000u      0.000s      0.000w     12 calls
JK: JK                              :      0.367u      1.600s      1.199w     12 calls
JK: (Q|mn) Read                     :      0.000u      0.450s      0.331w     24 calls
JK: J                               :      0.200u      0.050s      0.130w     24 calls
JK: J1                              :      0.050u      0.050s      0.064w     24 calls
JK: J2                              :      0.150u      0.000s      0.061w     24 calls
JK: AO2USO                          :      0.000u      0.000s      0.000w     12 calls
HF: Form F                          :      0.000u      0.000s      0.001w     12 calls
HF: Form D                          :      0.417u      0.000s      0.001w     12 calls
HF: DIIS                            :      1.400u      0.033s      0.117w     11 calls
HF: Form C                          :      1.000u      0.000s      0.083w     11 calls

--------------------------------------------------------------------------------------
V: Grid                             :      2.133u      0.067s      1.318w      1 calls
| build grid                        :      1.950u      0.033s      1.185w      1 calls
| post-process grid                 :      0.183u      0.033s      0.133w      1 calls
DFH: sparsity prep                  :      0.367u      0.017s      0.221w      1 calls
| Libint2ERI::Libint2ERI            :      0.233u      0.017s      0.145w      1 calls
Libint2ERI::Libint2ERI              :      0.467u      0.000s      0.279w      2 calls
JK: (A|Q)^-1                        :      0.700u      0.167s      0.442w      1 calls
| Libint2ERI::Libint2ERI            :      0.000u      0.000s      0.000w      1 calls
JK: (A|mn)                          :      2.300u      0.000s      1.372w      1 calls
JK: (Q|mn)                          :      1.683u      0.000s      1.010w      1 calls
JK: (Q|mn) Write                    :      0.000u      0.067s      0.040w      1 calls
HF: Form core H                     :      0.117u      0.000s      0.062w      1 calls
HF: Form S/X                        :      0.000u      0.000s      0.009w      1 calls
HF: Guess                           :      0.050u      0.017s      0.034w      1 calls
| SAD Guess                         :      0.033u      0.017s      0.033w      1 calls
HF: Form G                          :     43.267u      2.083s     23.551w     12 calls
| RV: Form V                        :     42.883u      0.483s     22.348w     12 calls
| | Properties                      :     22.667u      0.300s     12.355w  38988 calls
| | Functional                      :      4.400u      0.033s      2.125w  38988 calls
| | V_xc                            :     15.133u      0.150s      7.747w  38988 calls
| JK: D                             :      0.000u      0.000s      0.002w     12 calls
| JK: USO2AO                        :      0.000u      0.000s      0.000w     12 calls
| JK: JK                            :      0.367u      1.600s      1.199w     12 calls
| | JK: (Q|mn) Read                 :      0.000u      0.450s      0.331w     24 calls
| | JK: J                           :      0.200u      0.050s      0.130w     24 calls
| | | JK: J1                        :      0.050u      0.050s      0.064w     24 calls
| | | JK: J2                        :      0.150u      0.000s      0.061w     24 calls
| JK: AO2USO                        :      0.000u      0.000s      0.000w     12 calls
HF: Form F                          :      0.000u      0.000s      0.001w     12 calls
HF: Form D                          :      0.417u      0.000s      0.001w     12 calls
HF: DIIS                            :      1.400u      0.033s      0.117w     11 calls
HF: Form C                          :      1.000u      0.000s      0.083w     11 calls

**************************************************************************************

Host: germain

Timers On : Wed Sep 11 12:02:27 2024
Timers Off: Wed Sep 11 12:03:51 2024

Wall Time:       83.72 seconds

                                                       Time (seconds)
Module                                       User      System        Wall        Calls
V: Grid                             :      8.250u      0.083s      5.004w      2 calls
build grid                          :      7.833u      0.050s      4.730w      2 calls
post-process grid                   :      0.417u      0.033s      0.274w      2 calls
DFH: sparsity prep                  :      0.733u      0.000s      0.455w      2 calls
Libint2ERI::Libint2ERI              :      1.800u      0.000s      1.092w     12 calls
JK: (A|Q)^-1                        :      1.533u      0.367s      0.945w      2 calls
JK: (A|mn)                          :      4.850u      0.000s      2.909w      2 calls
JK: (Q|mn)                          :      3.467u      0.000s      2.074w      2 calls
JK: (Q|mn) Write                    :      0.000u      0.133s      0.080w      2 calls
HF: Form core H                     :      0.217u      0.017s      0.136w      2 calls
HF: Form S/X                        :      0.033u      0.000s      0.019w      2 calls
HF: Guess                           :      0.100u      0.017s      0.071w      2 calls
SAD Guess                           :      0.100u      0.017s      0.069w      2 calls
HF: Form G                          :     98.300u      5.700s     58.742w     29 calls
RV: Form V                          :     97.317u      1.033s     55.351w     29 calls
Properties                          :     55.933u      0.500s     32.459w  97470 calls
Functional                          :      8.483u      0.183s      5.422w  97470 calls
V_xc                                :     35.367u      0.383s     19.037w  94221 calls
JK: D                               :      0.000u      0.000s      0.004w     29 calls
JK: USO2AO                          :      0.000u      0.000s      0.000w     29 calls
JK: JK                              :      0.983u      4.667s      3.381w     29 calls
JK: (Q|mn) Read                     :      0.100u      1.250s      0.784w     58 calls
JK: J                               :      0.417u      0.067s      0.327w     58 calls
JK: J1                              :      0.150u      0.050s      0.155w     58 calls
JK: J2                              :      0.267u      0.017s      0.161w     58 calls
JK: AO2USO                          :      0.000u      0.000s      0.000w     29 calls
HF: Form F                          :      0.000u      0.000s      0.002w     29 calls
HF: Form D                          :      0.000u      0.000s      0.004w     29 calls
HF: DIIS                            :      1.533u      0.100s      0.235w     27 calls
HF: Form C                          :      1.600u      0.000s      0.204w     27 calls
Grad: V T Perturb                   :      0.167u      0.000s      0.093w      1 calls
Grad: S                             :      0.000u      0.000s      0.005w      1 calls
Grad: JK                            :     11.233u      0.233s      7.025w      1 calls
JKGrad: Amn                         :      2.967u      0.217s      1.931w      1 calls
JKGrad: Awmn                        :      0.000u      0.000s      0.000w      1 calls
JKGrad: AB                          :      0.883u      0.017s      0.650w      1 calls
JKGrad: UV                          :      0.000u      0.000s      0.000w      1 calls
JKGrad: ABx                         :      0.133u      0.000s      0.082w      1 calls
JKGrad: Amnx                        :      7.250u      0.000s      4.361w      1 calls
Grad: XC                            :      5.700u      0.050s      3.440w      1 calls
V_xc gradient                       :      2.417u      0.017s      1.554w   3249 calls

--------------------------------------------------------------------------------------
V: Grid                             :      8.250u      0.083s      5.004w      2 calls
| build grid                        :      7.833u      0.050s      4.730w      2 calls
| post-process grid                 :      0.417u      0.033s      0.274w      2 calls
DFH: sparsity prep                  :      0.733u      0.000s      0.455w      2 calls
| Libint2ERI::Libint2ERI            :      0.483u      0.000s      0.296w      2 calls
Libint2ERI::Libint2ERI              :      0.917u      0.000s      0.550w      4 calls
JK: (A|Q)^-1                        :      1.533u      0.367s      0.945w      2 calls
| Libint2ERI::Libint2ERI            :      0.000u      0.000s      0.000w      2 calls
JK: (A|mn)                          :      4.850u      0.000s      2.909w      2 calls
JK: (Q|mn)                          :      3.467u      0.000s      2.074w      2 calls
JK: (Q|mn) Write                    :      0.000u      0.133s      0.080w      2 calls
HF: Form core H                     :      0.217u      0.017s      0.136w      2 calls
HF: Form S/X                        :      0.033u      0.000s      0.019w      2 calls
HF: Guess                           :      0.100u      0.017s      0.071w      2 calls
| SAD Guess                         :      0.100u      0.017s      0.069w      2 calls
HF: Form G                          :     98.300u      5.700s     58.742w     29 calls
| RV: Form V                        :     97.317u      1.033s     55.351w     29 calls
| | Properties                      :     53.000u      0.467s     30.762w  94221 calls
| | Functional                      :      8.167u      0.183s      5.245w  94221 calls
| | V_xc                            :     35.367u      0.383s     19.037w  94221 calls
| JK: D                             :      0.000u      0.000s      0.004w     29 calls
| JK: USO2AO                        :      0.000u      0.000s      0.000w     29 calls
| JK: JK                            :      0.983u      4.667s      3.381w     29 calls
| | JK: (Q|mn) Read                 :      0.100u      1.250s      0.784w     58 calls
| | JK: J                           :      0.417u      0.067s      0.327w     58 calls
| | | JK: J1                        :      0.150u      0.050s      0.155w     58 calls
| | | JK: J2                        :      0.267u      0.017s      0.161w     58 calls
| JK: AO2USO                        :      0.000u      0.000s      0.000w     29 calls
HF: Form F                          :      0.000u      0.000s      0.002w     29 calls
HF: Form D                          :      0.000u      0.000s      0.004w     29 calls
HF: DIIS                            :      1.533u      0.100s      0.235w     27 calls
HF: Form C                          :      1.600u      0.000s      0.204w     27 calls
Grad: V T Perturb                   :      0.167u      0.000s      0.093w      1 calls
Grad: S                             :      0.000u      0.000s      0.005w      1 calls
Grad: JK                            :     11.233u      0.233s      7.025w      1 calls
| JKGrad: Amn                       :      2.967u      0.217s      1.931w      1 calls
| | Libint2ERI::Libint2ERI          :      0.183u      0.000s      0.108w      1 calls
| JKGrad: Awmn                      :      0.000u      0.000s      0.000w      1 calls
| JKGrad: AB                        :      0.883u      0.017s      0.650w      1 calls
| | Libint2ERI::Libint2ERI          :      0.000u      0.000s      0.000w      1 calls
| JKGrad: UV                        :      0.000u      0.000s      0.000w      1 calls
| JKGrad: ABx                       :      0.133u      0.000s      0.082w      1 calls
| | Libint2ERI::Libint2ERI          :      0.000u      0.000s      0.000w      1 calls
| JKGrad: Amnx                      :      7.250u      0.000s      4.361w      1 calls
| | Libint2ERI::Libint2ERI          :      0.217u      0.000s      0.136w      1 calls
Grad: XC                            :      5.700u      0.050s      3.440w      1 calls
| Properties                        :      2.933u      0.033s      1.697w   3249 calls
| Functional                        :      0.317u      0.000s      0.177w   3249 calls
| V_xc gradient                     :      2.417u      0.017s      1.554w   3249 calls

**************************************************************************************

Host: germain

Timers On : Wed Sep 11 12:04:09 2024
Timers Off: Wed Sep 11 12:05:33 2024

Wall Time:       83.75 seconds

                                                       Time (seconds)
Module                                       User      System        Wall        Calls
V: Grid                             :      4.883u      0.083s      3.016w      2 calls
build grid                          :      4.550u      0.017s      2.768w      2 calls
post-process grid                   :      0.333u      0.067s      0.248w      2 calls
DFH: sparsity prep                  :      0.700u      0.000s      0.437w      2 calls
Libint2ERI::Libint2ERI              :      1.733u      0.000s      1.064w     12 calls
JK: (A|Q)^-1                        :      1.533u      0.383s      0.948w      2 calls
JK: (A|mn)                          :      4.983u      0.167s      3.110w      2 calls
JK: (Q|mn)                          :      3.483u      0.067s      2.131w      2 calls
JK: (Q|mn) Write                    :      0.000u      0.167s      0.099w      2 calls
HF: Form core H                     :      0.200u      0.017s      0.125w      2 calls
HF: Form S/X                        :      0.033u      0.000s      0.018w      2 calls
HF: Guess                           :      0.067u      0.033s      0.065w      2 calls
SAD Guess                           :      0.067u      0.033s      0.063w      2 calls
HF: Form G                          :    102.233u      5.783s     60.970w     30 calls
RV: Form V                          :    101.267u      0.917s     57.422w     30 calls
Properties                          :     58.783u      0.500s     33.235w 101494 calls
Functional                          :     10.750u      0.133s      5.599w 101494 calls
V_xc                                :     34.283u      0.300s     20.184w  98220 calls
JK: D                               :      0.033u      0.000s      0.004w     30 calls
JK: USO2AO                          :      0.000u      0.000s      0.000w     30 calls
JK: JK                              :      0.933u      4.850s      3.536w     30 calls
JK: (Q|mn) Read                     :      0.067u      1.433s      0.884w     60 calls
JK: J                               :      0.500u      0.033s      0.340w     60 calls
JK: J1                              :      0.200u      0.017s      0.163w     60 calls
JK: J2                              :      0.267u      0.000s      0.166w     60 calls
JK: AO2USO                          :      0.000u      0.000s      0.000w     30 calls
HF: Form F                          :      0.000u      0.000s      0.003w     30 calls
HF: Form D                          :      0.000u      0.000s      0.004w     30 calls
HF: DIIS                            :      1.650u      0.150s      0.248w     28 calls
HF: Form C                          :      1.217u      0.000s      0.213w     28 calls
Grad: V T Perturb                   :      0.167u      0.000s      0.110w      1 calls
Grad: S                             :      0.017u      0.017s      0.006w      1 calls
Grad: JK                            :     10.633u      0.233s      6.540w      1 calls
JKGrad: Amn                         :      2.683u      0.217s      1.761w      1 calls
JKGrad: Awmn                        :      0.000u      0.000s      0.000w      1 calls
JKGrad: AB                          :      0.767u      0.017s      0.464w      1 calls
JKGrad: UV                          :      0.000u      0.000s      0.000w      1 calls
JKGrad: ABx                         :      0.083u      0.000s      0.052w      1 calls
JKGrad: Amnx                        :      7.100u      0.000s      4.262w      1 calls
Grad: XC                            :      5.583u      0.050s      3.380w      1 calls
V_xc gradient                       :      2.333u      0.017s      1.453w   3274 calls

--------------------------------------------------------------------------------------
V: Grid                             :      4.883u      0.083s      3.016w      2 calls
| build grid                        :      4.550u      0.017s      2.768w      2 calls
| post-process grid                 :      0.333u      0.067s      0.248w      2 calls
DFH: sparsity prep                  :      0.700u      0.000s      0.437w      2 calls
| Libint2ERI::Libint2ERI            :      0.450u      0.000s      0.291w      2 calls
Libint2ERI::Libint2ERI              :      0.883u      0.000s      0.530w      4 calls
JK: (A|Q)^-1                        :      1.533u      0.383s      0.948w      2 calls
| Libint2ERI::Libint2ERI            :      0.000u      0.000s      0.000w      2 calls
JK: (A|mn)                          :      4.983u      0.167s      3.110w      2 calls
JK: (Q|mn)                          :      3.483u      0.067s      2.131w      2 calls
JK: (Q|mn) Write                    :      0.000u      0.167s      0.099w      2 calls
HF: Form core H                     :      0.200u      0.017s      0.125w      2 calls
HF: Form S/X                        :      0.033u      0.000s      0.018w      2 calls
HF: Guess                           :      0.067u      0.033s      0.065w      2 calls
| SAD Guess                         :      0.067u      0.033s      0.063w      2 calls
HF: Form G                          :    102.233u      5.783s     60.970w     30 calls
| RV: Form V                        :    101.267u      0.917s     57.422w     30 calls
| | Properties                      :     56.083u      0.483s     31.500w  98220 calls
| | Functional                      :     10.233u      0.117s      5.421w  98220 calls
| | V_xc                            :     34.283u      0.300s     20.184w  98220 calls
| JK: D                             :      0.033u      0.000s      0.004w     30 calls
| JK: USO2AO                        :      0.000u      0.000s      0.000w     30 calls
| JK: JK                            :      0.933u      4.850s      3.536w     30 calls
| | JK: (Q|mn) Read                 :      0.067u      1.433s      0.884w     60 calls
| | JK: J                           :      0.500u      0.033s      0.340w     60 calls
| | | JK: J1                        :      0.200u      0.017s      0.163w     60 calls
| | | JK: J2                        :      0.267u      0.000s      0.166w     60 calls
| JK: AO2USO                        :      0.000u      0.000s      0.000w     30 calls
HF: Form F                          :      0.000u      0.000s      0.003w     30 calls
HF: Form D                          :      0.000u      0.000s      0.004w     30 calls
HF: DIIS                            :      1.650u      0.150s      0.248w     28 calls
HF: Form C                          :      1.217u      0.000s      0.213w     28 calls
Grad: V T Perturb                   :      0.167u      0.000s      0.110w      1 calls
Grad: S                             :      0.017u      0.017s      0.006w      1 calls
Grad: JK                            :     10.633u      0.233s      6.540w      1 calls
| JKGrad: Amn                       :      2.683u      0.217s      1.761w      1 calls
| | Libint2ERI::Libint2ERI          :      0.217u      0.000s      0.134w      1 calls
| JKGrad: Awmn                      :      0.000u      0.000s      0.000w      1 calls
| JKGrad: AB                        :      0.767u      0.017s      0.464w      1 calls
| | Libint2ERI::Libint2ERI          :      0.000u      0.000s      0.000w      1 calls
| JKGrad: UV                        :      0.000u      0.000s      0.000w      1 calls
| JKGrad: ABx                       :      0.083u      0.000s      0.052w      1 calls
| | Libint2ERI::Libint2ERI          :      0.000u      0.000s      0.000w      1 calls
| JKGrad: Amnx                      :      7.100u      0.000s      4.262w      1 calls
| | Libint2ERI::Libint2ERI          :      0.183u      0.000s      0.108w      1 calls
Grad: XC                            :      5.583u      0.050s      3.380w      1 calls
| Properties                        :      2.700u      0.017s      1.735w   3274 calls
| Functional                        :      0.517u      0.017s      0.178w   3274 calls
| V_xc gradient                     :      2.333u      0.017s      1.453w   3274 calls

**************************************************************************************

Host: germain

Timers On : Wed Sep 11 12:06:19 2024
Timers Off: Wed Sep 11 12:07:44 2024

Wall Time:       84.83 seconds

                                                       Time (seconds)
Module                                       User      System        Wall        Calls
V: Grid                             :      8.333u      0.117s      5.075w      2 calls
build grid                          :      7.950u      0.050s      4.806w      2 calls
post-process grid                   :      0.383u      0.067s      0.269w      2 calls
DFH: sparsity prep                  :      0.717u      0.000s      0.438w      2 calls
Libint2ERI::Libint2ERI              :      1.750u      0.000s      1.059w     12 calls
JK: (A|Q)^-1                        :      1.550u      0.350s      0.968w      2 calls
JK: (A|mn)                          :      4.983u      0.150s      3.078w      2 calls
JK: (Q|mn)                          :      3.533u      0.100s      2.195w      2 calls
JK: (Q|mn) Write                    :      0.033u      0.150s      0.101w      2 calls
HF: Form core H                     :      0.233u      0.000s      0.149w      2 calls
HF: Form S/X                        :      0.033u      0.000s      0.020w      2 calls
HF: Guess                           :      0.083u      0.033s      0.066w      2 calls
SAD Guess                           :      0.083u      0.033s      0.064w      2 calls
HF: Form G                          :    100.583u      5.800s     60.039w     29 calls
RV: Form V                          :     99.617u      1.000s     56.546w     29 calls
Properties                          :     57.600u      0.517s     33.196w  97110 calls
Functional                          :      9.400u      0.100s      5.320w  97110 calls
V_xc                                :     35.133u      0.367s     19.657w  93873 calls
JK: D                               :      0.000u      0.000s      0.004w     29 calls
JK: USO2AO                          :      0.000u      0.000s      0.000w     29 calls
JK: JK                              :      0.950u      4.800s      3.482w     29 calls
JK: (Q|mn) Read                     :      0.117u      1.500s      0.894w     58 calls
JK: J                               :      0.450u      0.050s      0.338w     58 calls
JK: J1                              :      0.150u      0.033s      0.162w     58 calls
JK: J2                              :      0.283u      0.017s      0.167w     58 calls
JK: AO2USO                          :      0.000u      0.000s      0.000w     29 calls
HF: Form F                          :      0.000u      0.000s      0.002w     29 calls
HF: Form D                          :      0.017u      0.000s      0.004w     29 calls
HF: DIIS                            :      1.383u      0.133s      0.237w     27 calls
HF: Form C                          :      1.467u      0.017s      0.206w     27 calls
Grad: V T Perturb                   :      0.150u      0.000s      0.089w      1 calls
Grad: S                             :      0.000u      0.000s      0.005w      1 calls
Grad: JK                            :     10.567u      0.217s      6.468w      1 calls
JKGrad: Amn                         :      2.683u      0.200s      1.737w      1 calls
JKGrad: Awmn                        :      0.000u      0.000s      0.000w      1 calls
JKGrad: AB                          :      0.717u      0.017s      0.439w      1 calls
JKGrad: UV                          :      0.000u      0.000s      0.000w      1 calls
JKGrad: ABx                         :      0.100u      0.000s      0.052w      1 calls
JKGrad: Amnx                        :      7.067u      0.000s      4.238w      1 calls
Grad: XC                            :      5.600u      0.050s      3.392w      1 calls
V_xc gradient                       :      2.333u      0.050s      1.448w   3237 calls

--------------------------------------------------------------------------------------
V: Grid                             :      8.333u      0.117s      5.075w      2 calls
| build grid                        :      7.950u      0.050s      4.806w      2 calls
| post-process grid                 :      0.383u      0.067s      0.269w      2 calls
DFH: sparsity prep                  :      0.717u      0.000s      0.438w      2 calls
| Libint2ERI::Libint2ERI            :      0.467u      0.000s      0.285w      2 calls
Libint2ERI::Libint2ERI              :      0.933u      0.000s      0.556w      4 calls
JK: (A|Q)^-1                        :      1.550u      0.350s      0.968w      2 calls
| Libint2ERI::Libint2ERI            :      0.000u      0.000s      0.000w      2 calls
JK: (A|mn)                          :      4.983u      0.150s      3.078w      2 calls
JK: (Q|mn)                          :      3.533u      0.100s      2.195w      2 calls
JK: (Q|mn) Write                    :      0.033u      0.150s      0.101w      2 calls
HF: Form core H                     :      0.233u      0.000s      0.149w      2 calls
HF: Form S/X                        :      0.033u      0.000s      0.020w      2 calls
HF: Guess                           :      0.083u      0.033s      0.066w      2 calls
| SAD Guess                         :      0.083u      0.033s      0.064w      2 calls
HF: Form G                          :    100.583u      5.800s     60.039w     29 calls
| RV: Form V                        :     99.617u      1.000s     56.546w     29 calls
| | Properties                      :     54.617u      0.517s     31.440w  93873 calls
| | Functional                      :      9.150u      0.100s      5.144w  93873 calls
| | V_xc                            :     35.133u      0.367s     19.657w  93873 calls
| JK: D                             :      0.000u      0.000s      0.004w     29 calls
| JK: USO2AO                        :      0.000u      0.000s      0.000w     29 calls
| JK: JK                            :      0.950u      4.800s      3.482w     29 calls
| | JK: (Q|mn) Read                 :      0.117u      1.500s      0.894w     58 calls
| | JK: J                           :      0.450u      0.050s      0.338w     58 calls
| | | JK: J1                        :      0.150u      0.033s      0.162w     58 calls
| | | JK: J2                        :      0.283u      0.017s      0.167w     58 calls
| JK: AO2USO                        :      0.000u      0.000s      0.000w     29 calls
HF: Form F                          :      0.000u      0.000s      0.002w     29 calls
HF: Form D                          :      0.017u      0.000s      0.004w     29 calls
HF: DIIS                            :      1.383u      0.133s      0.237w     27 calls
HF: Form C                          :      1.467u      0.017s      0.206w     27 calls
Grad: V T Perturb                   :      0.150u      0.000s      0.089w      1 calls
Grad: S                             :      0.000u      0.000s      0.005w      1 calls
Grad: JK                            :     10.567u      0.217s      6.468w      1 calls
| JKGrad: Amn                       :      2.683u      0.200s      1.737w      1 calls
| | Libint2ERI::Libint2ERI          :      0.183u      0.000s      0.111w      1 calls
| JKGrad: Awmn                      :      0.000u      0.000s      0.000w      1 calls
| JKGrad: AB                        :      0.717u      0.017s      0.439w      1 calls
| | Libint2ERI::Libint2ERI          :      0.000u      0.000s      0.000w      1 calls
| JKGrad: UV                        :      0.000u      0.000s      0.000w      1 calls
| JKGrad: ABx                       :      0.100u      0.000s      0.052w      1 calls
| | Libint2ERI::Libint2ERI          :      0.000u      0.000s      0.000w      1 calls
| JKGrad: Amnx                      :      7.067u      0.000s      4.238w      1 calls
| | Libint2ERI::Libint2ERI          :      0.167u      0.000s      0.107w      1 calls
Grad: XC                            :      5.600u      0.050s      3.392w      1 calls
| Properties                        :      2.983u      0.000s      1.756w   3237 calls
| Functional                        :      0.250u      0.000s      0.176w   3237 calls
| V_xc gradient                     :      2.333u      0.050s      1.448w   3237 calls

**************************************************************************************

Host: germain

Timers On : Fri Sep 13 16:31:58 2024
Timers Off: Fri Sep 13 16:39:21 2024

Wall Time:      443.05 seconds

                                                       Time (seconds)
Module                                       User      System        Wall        Calls
Total PK formation time             :    106.683u      9.100s     68.217w      1 calls
Libint2ERI::Libint2ERI              :      0.550u      0.050s      0.344w      3 calls
HF: Form core H                     :      0.100u      0.000s      0.062w      1 calls
HF: Form S/X                        :      0.017u      0.000s      0.009w      1 calls
HF: Guess                           :      0.050u      0.000s      0.030w      1 calls
SAD Guess                           :      0.050u      0.000s      0.029w      1 calls
HF: Form G                          :     17.250u     54.767s     39.897w     16 calls
JK: D                               :      0.017u      0.000s      0.002w     16 calls
JK: USO2AO                          :      0.000u      0.000s      0.000w     16 calls
JK: JK                              :     17.233u     54.767s     39.892w     16 calls
PK computes JK                      :     17.233u     54.767s     39.891w     16 calls
AIO synchronize                     :      0.000u      0.000s      0.000w      1 calls
JK: AO2USO                          :      0.000u      0.000s      0.000w     16 calls
HF: Form F                          :      0.000u      0.000s      0.001w     16 calls
HF: Form D                          :      0.017u      0.000s      0.002w     16 calls
HF: DIIS                            :      2.083u      0.083s      0.166w     15 calls
HF: Form C                          :      1.017u      0.000s      0.116w     15 calls

--------------------------------------------------------------------------------------
Total PK formation time             :    106.683u      9.100s     68.217w      1 calls
| Libint2ERI::Libint2ERI            :      0.367u      0.050s      0.234w      2 calls
HF: Form core H                     :      0.100u      0.000s      0.062w      1 calls
HF: Form S/X                        :      0.017u      0.000s      0.009w      1 calls
HF: Guess                           :      0.050u      0.000s      0.030w      1 calls
| SAD Guess                         :      0.050u      0.000s      0.029w      1 calls
HF: Form G                          :     17.250u     54.767s     39.897w     16 calls
| JK: D                             :      0.017u      0.000s      0.002w     16 calls
| JK: USO2AO                        :      0.000u      0.000s      0.000w     16 calls
| JK: JK                            :     17.233u     54.767s     39.892w     16 calls
| | PK computes JK                  :     17.233u     54.767s     39.891w     16 calls
| | | AIO synchronize               :      0.000u      0.000s      0.000w      1 calls
| JK: AO2USO                        :      0.000u      0.000s      0.000w     16 calls
HF: Form F                          :      0.000u      0.000s      0.001w     16 calls
HF: Form D                          :      0.017u      0.000s      0.002w     16 calls
HF: DIIS                            :      2.083u      0.083s      0.166w     15 calls
HF: Form C                          :      1.017u      0.000s      0.116w     15 calls
Libint2ERI::Libint2ERI              :      0.183u      0.000s      0.110w      1 calls

**************************************************************************************

Host: germain

Timers On : Fri Sep 13 16:42:28 2024
Timers Off: Fri Sep 13 16:48:05 2024

Wall Time:      337.25 seconds

                                                       Time (seconds)
Module                                       User      System        Wall        Calls
Total PK formation time             :     85.183u      9.750s     54.784w      1 calls
Libint2ERI::Libint2ERI              :      0.650u      0.217s      0.393w      3 calls
HF: Form core H                     :      0.117u      0.050s      0.062w      1 calls
HF: Form S/X                        :      0.017u      0.000s      0.009w      1 calls
HF: Guess                           :      0.050u      0.000s      0.032w      1 calls
SAD Guess                           :      0.050u      0.000s      0.031w      1 calls
HF: Form G                          :     17.833u     45.600s     34.362w     16 calls
JK: D                               :      0.000u      0.000s      0.002w     16 calls
JK: USO2AO                          :      0.000u      0.000s      0.000w     16 calls
JK: JK                              :     17.833u     45.600s     34.357w     16 calls
PK computes JK                      :     17.833u     45.600s     34.357w     16 calls
AIO synchronize                     :      0.000u      0.000s      0.000w      1 calls
JK: AO2USO                          :      0.000u      0.000s      0.000w     16 calls
HF: Form F                          :      0.000u      0.000s      0.001w     16 calls
HF: Form D                          :      0.000u      0.000s      0.002w     16 calls
HF: DIIS                            :      1.333u      0.083s      0.137w     15 calls
HF: Form C                          :      1.450u      0.000s      0.113w     15 calls

--------------------------------------------------------------------------------------
Total PK formation time             :     85.183u      9.750s     54.784w      1 calls
| Libint2ERI::Libint2ERI            :      0.467u      0.217s      0.284w      2 calls
HF: Form core H                     :      0.117u      0.050s      0.062w      1 calls
HF: Form S/X                        :      0.017u      0.000s      0.009w      1 calls
HF: Guess                           :      0.050u      0.000s      0.032w      1 calls
| SAD Guess                         :      0.050u      0.000s      0.031w      1 calls
HF: Form G                          :     17.833u     45.600s     34.362w     16 calls
| JK: D                             :      0.000u      0.000s      0.002w     16 calls
| JK: USO2AO                        :      0.000u      0.000s      0.000w     16 calls
| JK: JK                            :     17.833u     45.600s     34.357w     16 calls
| | PK computes JK                  :     17.833u     45.600s     34.357w     16 calls
| | | AIO synchronize               :      0.000u      0.000s      0.000w      1 calls
| JK: AO2USO                        :      0.000u      0.000s      0.000w     16 calls
HF: Form F                          :      0.000u      0.000s      0.001w     16 calls
HF: Form D                          :      0.000u      0.000s      0.002w     16 calls
HF: DIIS                            :      1.333u      0.083s      0.137w     15 calls
HF: Form C                          :      1.450u      0.000s      0.113w     15 calls
Libint2ERI::Libint2ERI              :      0.183u      0.000s      0.109w      1 calls

**************************************************************************************

Host: germain

Timers On : Tue Sep 17 15:13:47 2024
Timers Off: Tue Sep 17 15:19:18 2024

Wall Time:      331.31 seconds

                                                       Time (seconds)
Module                                       User      System        Wall        Calls
Total PK formation time             :     89.133u      9.933s     57.201w      1 calls
Libint2ERI::Libint2ERI              :      0.550u      0.217s      0.336w      3 calls
HF: Form core H                     :      0.100u      0.000s      0.061w      1 calls
HF: Form S/X                        :      0.017u      0.000s      0.009w      1 calls
HF: Guess                           :      0.033u      0.000s      0.031w      1 calls
SAD Guess                           :      0.033u      0.000s      0.030w      1 calls
HF: Form G                          :     11.367u     48.683s     36.026w     16 calls
JK: D                               :      0.000u      0.000s      0.002w     16 calls
JK: USO2AO                          :      0.000u      0.000s      0.000w     16 calls
JK: JK                              :     11.367u     48.683s     36.021w     16 calls
PK computes JK                      :     11.367u     48.683s     36.021w     16 calls
AIO synchronize                     :      0.000u      0.000s      0.000w      1 calls
JK: AO2USO                          :      0.000u      0.000s      0.000w     16 calls
HF: Form F                          :      0.000u      0.000s      0.001w     16 calls
HF: Form D                          :      0.000u      0.000s      0.002w     16 calls
HF: DIIS                            :      0.117u      0.083s      0.120w     15 calls
HF: Form C                          :      0.167u      0.000s      0.111w     15 calls

--------------------------------------------------------------------------------------
Total PK formation time             :     89.133u      9.933s     57.201w      1 calls
| Libint2ERI::Libint2ERI            :      0.367u      0.217s      0.227w      2 calls
HF: Form core H                     :      0.100u      0.000s      0.061w      1 calls
HF: Form S/X                        :      0.017u      0.000s      0.009w      1 calls
HF: Guess                           :      0.033u      0.000s      0.031w      1 calls
| SAD Guess                         :      0.033u      0.000s      0.030w      1 calls
HF: Form G                          :     11.367u     48.683s     36.026w     16 calls
| JK: D                             :      0.000u      0.000s      0.002w     16 calls
| JK: USO2AO                        :      0.000u      0.000s      0.000w     16 calls
| JK: JK                            :     11.367u     48.683s     36.021w     16 calls
| | PK computes JK                  :     11.367u     48.683s     36.021w     16 calls
| | | AIO synchronize               :      0.000u      0.000s      0.000w      1 calls
| JK: AO2USO                        :      0.000u      0.000s      0.000w     16 calls
HF: Form F                          :      0.000u      0.000s      0.001w     16 calls
HF: Form D                          :      0.000u      0.000s      0.002w     16 calls
HF: DIIS                            :      0.117u      0.083s      0.120w     15 calls
HF: Form C                          :      0.167u      0.000s      0.111w     15 calls
Libint2ERI::Libint2ERI              :      0.183u      0.000s      0.109w      1 calls

**************************************************************************************

Host: germain

Timers On : Tue Sep 17 15:53:21 2024
Timers Off: Tue Sep 17 15:59:49 2024

Wall Time:      388.01 seconds

                                                       Time (seconds)
Module                                       User      System        Wall        Calls
Total PK formation time             :     87.283u     10.467s     56.467w      1 calls
Libint2ERI::Libint2ERI              :      0.700u      0.200s      0.406w      3 calls
HF: Form core H                     :      0.100u      0.017s      0.061w      1 calls
HF: Form S/X                        :      0.017u      0.000s      0.009w      1 calls
HF: Guess                           :      0.050u      0.000s      0.033w      1 calls
SAD Guess                           :      0.050u      0.000s      0.032w      1 calls
HF: Form G                          :     12.100u     51.767s     38.623w     16 calls
JK: D                               :      0.017u      0.000s      0.003w     16 calls
JK: USO2AO                          :      0.000u      0.000s      0.000w     16 calls
JK: JK                              :     12.083u     51.750s     38.615w     16 calls
PK computes JK                      :     12.083u     51.750s     38.615w     16 calls
AIO synchronize                     :      0.000u      0.000s      0.000w      1 calls
JK: AO2USO                          :      0.000u      0.000s      0.000w     16 calls
HF: Form F                          :      0.000u      0.000s      0.002w     16 calls
HF: Form D                          :      0.000u      0.000s      0.002w     16 calls
HF: DIIS                            :      0.183u      0.033s      0.136w     15 calls
HF: Form C                          :      0.217u      0.000s      0.141w     15 calls

--------------------------------------------------------------------------------------
Total PK formation time             :     87.283u     10.467s     56.467w      1 calls
| Libint2ERI::Libint2ERI            :      0.450u      0.183s      0.258w      2 calls
HF: Form core H                     :      0.100u      0.017s      0.061w      1 calls
HF: Form S/X                        :      0.017u      0.000s      0.009w      1 calls
HF: Guess                           :      0.050u      0.000s      0.033w      1 calls
| SAD Guess                         :      0.050u      0.000s      0.032w      1 calls
HF: Form G                          :     12.100u     51.767s     38.623w     16 calls
| JK: D                             :      0.017u      0.000s      0.003w     16 calls
| JK: USO2AO                        :      0.000u      0.000s      0.000w     16 calls
| JK: JK                            :     12.083u     51.750s     38.615w     16 calls
| | PK computes JK                  :     12.083u     51.750s     38.615w     16 calls
| | | AIO synchronize               :      0.000u      0.000s      0.000w      1 calls
| JK: AO2USO                        :      0.000u      0.000s      0.000w     16 calls
HF: Form F                          :      0.000u      0.000s      0.002w     16 calls
HF: Form D                          :      0.000u      0.000s      0.002w     16 calls
HF: DIIS                            :      0.183u      0.033s      0.136w     15 calls
HF: Form C                          :      0.217u      0.000s      0.141w     15 calls
Libint2ERI::Libint2ERI              :      0.250u      0.017s      0.148w      1 calls

**************************************************************************************

Host: germain

Timers On : Tue Sep 17 18:32:14 2024
Timers Off: Tue Sep 17 18:32:15 2024

Wall Time:        0.44 seconds

                                                       Time (seconds)
Module                                       User      System        Wall        Calls

--------------------------------------------------------------------------------------

**************************************************************************************

Host: germain

Timers On : Tue Sep 17 18:32:32 2024
Timers Off: Tue Sep 17 18:32:33 2024

Wall Time:        0.32 seconds

                                                       Time (seconds)
Module                                       User      System        Wall        Calls

--------------------------------------------------------------------------------------

**************************************************************************************

Host: germain

Timers On : Tue Sep 17 18:32:32 2024
Timers Off: Tue Sep 17 18:51:15 2024

Wall Time:     1123.71 seconds

                                                       Time (seconds)
Module                                       User      System        Wall        Calls
V: Grid                             :      8.283u      0.050s      5.003w      2 calls
build grid                          :      7.833u      0.033s      4.721w      2 calls
post-process grid                   :      0.450u      0.017s      0.281w      2 calls
DFH: sparsity prep                  :      0.833u      0.017s      0.512w      2 calls
Libint2ERI::Libint2ERI              :      2.150u      0.033s      1.323w     14 calls
Libint2ErfERI::Libint2ErfERI        :      1.167u      0.000s      0.696w      4 calls
JK: (A|Q)^-1                        :      1.583u      2.550s      1.515w      2 calls
JK: (A|mn)                          :     16.800u      0.183s     10.185w      4 calls
JK: (Q|mn)                          :     30.450u      0.367s     18.487w      4 calls
JK: (Q|mn) Write                    :      0.017u      1.300s      0.785w      4 calls
JK: (A|mn)^L                        :     16.850u      0.083s     10.167w      4 calls
JK: (Q|mn)^L                        :     30.400u      0.267s     18.402w      4 calls
JK: (Q|mn)^L Write                  :      0.000u      1.150s      0.682w      4 calls
JK: (Q|mn)^R                        :     16.817u      0.000s     10.080w      4 calls
JK: (Q|mn)^R Write                  :      0.000u      2.433s      1.464w      4 calls
HF: Form core H                     :      0.317u      0.017s      0.206w      2 calls
HF: Form S/X                        :      0.450u      0.033s      0.281w      2 calls
HF: Guess                           :      0.217u      0.000s      0.130w      2 calls
SAD Guess                           :      0.200u      0.000s      0.124w      2 calls
HF: Form G                          :   1501.683u     48.950s    930.432w     25 calls
RV: Form V                          :   1184.317u      3.567s    712.782w     25 calls
Properties                          :    678.817u      1.917s    407.961w  83954 calls
Functional                          :     10.533u      0.067s      6.251w  83954 calls
V_xc                                :    518.633u      1.617s    313.598w  80725 calls
JK: D                               :      0.050u      0.017s      0.038w     25 calls
JK: USO2AO                          :      0.000u      0.000s      0.003w     25 calls
JK: JK                              :    317.233u     45.300s    217.560w     25 calls
JK: (Q|mn) Read                     :      0.083u      7.317s      4.410w     50 calls
JK: J                               :      3.700u      0.050s      2.266w     50 calls
JK: J1                              :      1.717u      0.017s      1.040w     50 calls
JK: J2                              :      1.917u      0.000s      1.156w     50 calls
JK: K                               :    119.633u      0.083s     71.823w     50 calls
JK: K1                              :     86.083u      0.083s     51.672w     50 calls
JK: K2                              :     33.517u      0.000s     20.135w     50 calls
JK: (Q|mn)^L Read                   :      0.200u      6.300s      3.899w     77 calls
JK: (Q|mn)^R Read                   :      0.067u      6.383s      3.871w     77 calls
JK: wK                              :    189.883u      0.117s    114.002w     77 calls
JK: wK1                             :    155.817u      0.083s     93.611w    154 calls
JK: wK2                             :     34.050u      0.033s     20.379w     77 calls
JK: AO2USO                          :      0.000u      0.000s      0.000w     25 calls
HF: Form F                          :      0.000u      0.017s      0.029w     25 calls
HF: Form D                          :      0.017u      0.017s      0.022w     25 calls
HF: DIIS                            :      1.800u      0.583s      1.391w     23 calls
HF: Form C                          :      5.033u      0.000s      3.011w     23 calls
Grad: V T Perturb                   :      0.433u      0.000s      0.256w      1 calls
Grad: S                             :      0.033u      0.000s      0.017w      1 calls
Grad: JK                            :    112.367u      1.950s     68.594w      1 calls
JKGrad: Amn                         :     13.017u      0.567s      8.150w      1 calls
JKGrad: Awmn                        :     13.033u      0.533s      8.147w      1 calls
JKGrad: AB                          :      1.150u      0.033s      0.700w      1 calls
JKGrad: UV                          :      0.350u      0.033s      0.231w      1 calls
JKGrad: ABx                         :      0.117u      0.000s      0.076w      1 calls
JKGrad: Amnx                        :     84.700u      0.767s     51.285w      1 calls
Grad: XC                            :     54.767u      0.150s     32.951w      1 calls
V_xc gradient                       :     28.217u      0.067s     17.375w   3229 calls

--------------------------------------------------------------------------------------
V: Grid                             :      8.283u      0.050s      5.003w      2 calls
| build grid                        :      7.833u      0.033s      4.721w      2 calls
| post-process grid                 :      0.450u      0.017s      0.281w      2 calls
DFH: sparsity prep                  :      0.833u      0.017s      0.512w      2 calls
| Libint2ERI::Libint2ERI            :      0.533u      0.017s      0.337w      2 calls
Libint2ERI::Libint2ERI              :      1.083u      0.017s      0.658w      6 calls
Libint2ErfERI::Libint2ErfERI        :      0.583u      0.000s      0.350w      2 calls
JK: (A|Q)^-1                        :      1.583u      2.550s      1.515w      2 calls
| Libint2ERI::Libint2ERI            :      0.000u      0.000s      0.001w      2 calls
JK: (A|mn)                          :     16.800u      0.183s     10.185w      4 calls
JK: (Q|mn)                          :     30.450u      0.367s     18.487w      4 calls
JK: (Q|mn) Write                    :      0.017u      1.300s      0.785w      4 calls
JK: (A|mn)^L                        :     16.850u      0.083s     10.167w      4 calls
JK: (Q|mn)^L                        :     30.400u      0.267s     18.402w      4 calls
JK: (Q|mn)^L Write                  :      0.000u      1.150s      0.682w      4 calls
JK: (Q|mn)^R                        :     16.817u      0.000s     10.080w      4 calls
JK: (Q|mn)^R Write                  :      0.000u      2.433s      1.464w      4 calls
HF: Form core H                     :      0.317u      0.017s      0.206w      2 calls
HF: Form S/X                        :      0.450u      0.033s      0.281w      2 calls
HF: Guess                           :      0.217u      0.000s      0.130w      2 calls
| SAD Guess                         :      0.200u      0.000s      0.124w      2 calls
HF: Form G                          :   1501.683u     48.950s    930.432w     25 calls
| RV: Form V                        :   1184.317u      3.567s    712.782w     25 calls
| | Properties                      :    652.933u      1.867s    392.650w  80725 calls
| | Functional                      :     10.017u      0.033s      6.011w  80725 calls
| | V_xc                            :    518.633u      1.617s    313.598w  80725 calls
| JK: D                             :      0.050u      0.017s      0.038w     25 calls
| JK: USO2AO                        :      0.000u      0.000s      0.003w     25 calls
| JK: JK                            :    317.233u     45.300s    217.560w     25 calls
| | JK: (Q|mn) Read                 :      0.083u      7.317s      4.410w     50 calls
[...]

**************************************************************************************

Host: germain

Timers On : Fri Nov 15 00:23:35 2024
Timers Off: Fri Nov 15 00:23:35 2024

Wall Time:        0.31 seconds

                                                       Time (seconds)
Module                                       User      System        Wall        Calls

--------------------------------------------------------------------------------------

**************************************************************************************

Host: germain

Timers On : Fri Nov 15 14:45:19 2024
Timers Off: Fri Nov 15 14:45:19 2024

Wall Time:        0.36 seconds

                                                       Time (seconds)
Module                                       User      System        Wall        Calls

--------------------------------------------------------------------------------------

**************************************************************************************

Host: germain

Timers On : Fri Nov 15 14:45:17 2024
Timers Off: Fri Nov 15 19:04:17 2024

Wall Time:    15539.33 seconds

                                                       Time (seconds)
Module                                       User      System        Wall        Calls
V: Grid                             :    986.067u      9.100s     72.554w     36 calls
build grid                          :    929.533u      7.183s     52.208w     36 calls
post-process grid                   :     56.033u      1.900s     20.322w     36 calls
DFH: sparsity prep                  :     73.783u      2.067s     37.264w     36 calls
Libint2ERI::Libint2ERI              :    145.200u      2.950s     83.588w   1260 calls
Libint2ErfERI::Libint2ErfERI        :     48.067u      0.917s     29.374w     36 calls
JK: (A|Q)^-1                        :   1154.967u    686.400s    396.783w     36 calls
JK: (A|mn)                          :   2654.667u     24.150s    101.207w    408 calls
JK: (Q|mn)                          :  16457.367u    238.067s    627.262w    408 calls
JK: (Q|mn) Write                    :   1537.350u    300.067s    149.010w    408 calls
JK: (A|mn)^L                        :   2679.933u     42.917s    103.016w    408 calls
JK: (Q|mn)^L                        :  16656.083u    252.483s    635.555w    408 calls
JK: (Q|mn)^L Write                  :   1542.283u    295.333s    146.444w    408 calls
JK: (Q|mn)^R                        :  16983.767u    590.450s    661.563w    366 calls
JK: (Q|mn)^R Write                  :   1402.367u    508.317s    278.123w    366 calls
HF: Form core H                     :    214.500u      3.800s      8.226w     36 calls
HF: Form S/X                        :    338.983u     12.067s     13.200w     36 calls
HF: Guess                           :    157.633u     11.667s      6.426w     36 calls
SAD Guess                           :    148.267u     11.000s      6.046w     36 calls
HF: Form G                          : 294567.117u   7328.567s  11578.754w    384 calls
RV: Form V                          : 133330.933u    377.100s   5022.474w    384 calls
Properties                          :  41306.871p                         2562628 calls
Functional                          :    248.832p                         2562628 calls
V_xc                                :  38487.744p                         2562628 calls
JK: D                               :     40.400u      2.450s      1.643w    384 calls
JK: USO2AO                          :      7.550u      0.483s      0.274w    384 calls
JK: JK                              : 161103.867u   6929.883s   6550.512w    384 calls
JK: (Q|mn) Read                     :  17435.300u   1920.200s    775.619w   7624 calls
JK: J                               :   6954.550u    246.450s    336.246w   7624 calls
JK: J1                              :   3200.183u    110.283s    143.908w   7624 calls
JK: J2                              :   3056.517u    103.983s    157.506w   7624 calls
JK: K                               :  36340.533u    266.117s   1382.045w   7624 calls
JK: K1                              :  21608.150u    194.633s    824.985w   7624 calls
JK: K2                              :  14621.333u     67.800s    552.709w   7624 calls
JK: (Q|mn)^L Read                   :  16344.650u   1742.750s    702.170w  15072 calls
JK: (Q|mn)^R Read                   :  14250.833u   1534.833s    624.959w  15072 calls
JK: wK                              :  65750.400u    713.750s   2498.248w  15072 calls
JK: wK1                             :  50763.683u    624.483s   1935.397w  30144 calls
JK: wK2                             :  14643.950u     75.833s    554.565w  15072 calls
JK: AO2USO                          :      0.067u      0.000s      0.002w    384 calls
HF: Form F                          :     42.150u      4.417s      1.773w    384 calls
HF: Form D                          :     17.033u      0.417s      0.683w    384 calls
HF: DIIS                            :   2094.383u    161.700s     84.768w    348 calls
HF: Form C                          :   3162.017u     85.883s    122.083w    348 calls

--------------------------------------------------------------------------------------
V: Grid                             :    986.067u      9.100s     72.554w     36 calls
| build grid                        :    929.533u      7.183s     52.208w     36 calls
| post-process grid                 :     56.033u      1.900s     20.322w     36 calls
DFH: sparsity prep                  :     73.783u      2.067s     37.264w     36 calls
| Libint2ERI::Libint2ERI            :     46.500u      0.983s     28.527w     36 calls
Libint2ERI::Libint2ERI              :     98.667u      0.917s     54.737w    648 calls
Libint2ErfERI::Libint2ErfERI        :     48.067u      0.917s     29.374w     36 calls
JK: (A|Q)^-1                        :   1154.967u    686.400s    396.783w     36 calls
| Libint2ERI::Libint2ERI            :      0.033u      1.050s      0.324w    576 calls
JK: (A|mn)                          :   2654.667u     24.150s    101.207w    408 calls
JK: (Q|mn)                          :  16457.367u    238.067s    627.262w    408 calls
JK: (Q|mn) Write                    :   1537.350u    300.067s    149.010w    408 calls
JK: (A|mn)^L                        :   2679.933u     42.917s    103.016w    408 calls
JK: (Q|mn)^L                        :  16656.083u    252.483s    635.555w    408 calls
JK: (Q|mn)^L Write                  :   1542.283u    295.333s    146.444w    408 calls
JK: (Q|mn)^R                        :  16983.767u    590.450s    661.563w    366 calls
JK: (Q|mn)^R Write                  :   1402.367u    508.317s    278.123w    366 calls
HF: Form core H                     :    214.500u      3.800s      8.226w     36 calls
HF: Form S/X                        :    338.983u     12.067s     13.200w     36 calls
HF: Guess                           :    157.633u     11.667s      6.426w     36 calls
| SAD Guess                         :    148.267u     11.000s      6.046w     36 calls
HF: Form G                          : 294567.117u   7328.567s  11578.754w    384 calls
| RV: Form V                        : 133330.933u    377.100s   5022.474w    384 calls
| | Properties                      :  41306.871p                         2562628 calls
| | Functional                      :    248.832p                         2562628 calls
| | V_xc                            :  38487.744p                         2562628 calls
| JK: D                             :     40.400u      2.450s      1.643w    384 calls
| JK: USO2AO                        :      7.550u      0.483s      0.274w    384 calls
| JK: JK                            : 161103.867u   6929.883s   6550.512w    384 calls
| | JK: (Q|mn) Read                 :  17435.300u   1920.200s    775.619w   7624 calls
| | JK: J                           :   6954.550u    246.450s    336.246w   7624 calls
| | | JK: J1                        :   3200.183u    110.283s    143.908w   7624 calls
| | | JK: J2                        :   3056.517u    103.983s    157.506w   7624 calls
| | JK: K                           :  36340.533u    266.117s   1382.045w   7624 calls
| | | JK: K1                        :  21608.150u    194.633s    824.985w   7624 calls
| | | JK: K2                        :  14621.333u     67.800s    552.709w   7624 calls
| | JK: (Q|mn)^L Read               :  16344.650u   1742.750s    702.170w  15072 calls
| | JK: (Q|mn)^R Read               :  14250.833u   1534.833s    624.959w  15072 calls
| | JK: wK                          :  65750.400u    713.750s   2498.248w  15072 calls
| | | JK: wK1                       :  50763.683u    624.483s   1935.397w  30144 calls
| | | JK: wK2                       :  14643.950u     75.833s    554.565w  15072 calls
| JK: AO2USO                        :      0.067u      0.000s      0.002w    384 calls
HF: Form F                          :     42.150u      4.417s      1.773w    384 calls
HF: Form D                          :     17.033u      0.417s      0.683w    384 calls
HF: DIIS                            :   2094.383u    161.700s     84.768w    348 calls
HF: Form C                          :   3162.017u     85.883s    122.083w    348 calls

**************************************************************************************

Host: germain

Timers On : Sat Nov 16 18:02:04 2024
Timers Off: Sat Nov 16 18:02:04 2024

Wall Time:        0.32 seconds

                                                       Time (seconds)
Module                                       User      System        Wall        Calls

--------------------------------------------------------------------------------------

**************************************************************************************

Host: germain

Timers On : Sat Nov 16 18:02:03 2024
Timers Off: Sat Nov 16 18:31:23 2024

Wall Time:     1759.74 seconds

                                                       Time (seconds)
Module                                       User      System        Wall        Calls
V: Grid                             :    390.483u     12.183s     16.704w    120 calls
build grid                          :    218.617u      5.533s      8.708w    120 calls
post-process grid                   :    171.117u      6.600s      7.970w    120 calls
DFH: sparsity prep                  :     14.267u      0.717s      9.118w    120 calls
Libint2ERI::Libint2ERI              :     50.283u      3.367s     17.066w   3180 calls
Libint2ErfERI::Libint2ErfERI        :     34.283u      1.150s      5.931w    120 calls
JK: (A|Q)^-1                        :    334.600u     52.533s     24.863w     60 calls
JK: (A|mn)                          :    180.033u      0.700s      6.810w     60 calls
JK: (Q|mn)                          :    865.383u     21.217s     33.300w     60 calls
JK: (Q|mn) Write                    :    158.200u     18.600s      7.580w     60 calls
JK: (A|mn)^L                        :    182.300u      1.533s      6.926w     60 calls
JK: (Q|mn)^L                        :    847.817u     19.367s     32.576w     60 calls
JK: (Q|mn)^L Write                  :    154.817u     18.100s      7.393w     60 calls
JK: (Q|mn)^R                        :   1139.383u     40.317s     44.361w     60 calls
JK: (Q|mn)^R Write                  :    226.017u     35.850s     16.714w     60 calls
HF: Form core H                     :     68.200u      2.100s      2.696w    120 calls
HF: Form S/X                        :     72.083u      2.067s      2.788w    120 calls
HF: Guess                           :    290.200u     37.483s     12.497w    120 calls
SAD Guess                           :    285.667u     37.117s     12.314w    120 calls
HF: Form G                          :  30988.517u    988.333s   1301.404w   1073 calls
RV: Form V                          :  20423.550u     77.567s    769.763w   1073 calls
Properties                          :   5561.944p                         2032209 calls
Functional                          :    157.820p                         2032209 calls
V_xc                                :   6483.816p                         2032209 calls
JK: D                               :      4.817u      0.383s      0.227w   1073 calls
JK: USO2AO                          :      2.950u      0.167s      0.102w   1073 calls
JK: JK                              :  10540.267u    909.233s    530.653w   1073 calls
JK: (Q|mn) Read                     :    560.533u    100.950s     48.999w   1128 calls
JK: J                               :    221.000u      8.283s     19.413w   1128 calls
JK: J1                              :    105.700u      4.200s      8.931w   1128 calls
JK: J2                              :    101.783u      3.250s      9.664w   1128 calls
JK: K                               :   1335.250u     24.833s     51.680w   1128 calls
JK: K1                              :    922.417u     21.783s     36.104w   1128 calls
JK: K2                              :    406.500u      2.750s     15.451w   1128 calls
JK: (Q|mn)^L Read                   :    855.850u    109.317s     48.086w   1692 calls
JK: (Q|mn)^R Read                   :    889.950u    115.250s     48.872w   1692 calls
JK: wK                              :   2172.467u     42.317s     83.728w   1692 calls
JK: wK1                             :   1746.100u     38.383s     67.868w   3384 calls
JK: wK2                             :    410.667u      3.233s     15.668w   1692 calls
DFH: compute_JK()                   :    100.217u     11.500s      4.213w    509 calls
DFH: Grabbing AOs                   :      0.000u      0.000s      0.001w    509 calls
DFH: compute_J                      :     17.250u      9.850s      1.022w    509 calls
DFH: compute_K                      :     67.917u      0.483s      2.616w    509 calls
DFH: compute_wK()                   :    190.133u     19.667s      7.882w    509 calls
JK: AO2USO                          :      0.050u      0.000s      0.004w   1073 calls
HF: Form F                          :      5.117u      0.433s      0.216w   1073 calls
HF: Form D                          :      8.817u      0.300s      0.370w   1073 calls
HF: DIIS                            :    434.783u     31.850s     17.573w    953 calls
HF: Form C                          :    570.583u     12.900s     21.908w    953 calls
DFH: initialize()                   :    587.633u     45.083s     25.441w     60 calls
DFH: AO Construction                :     46.483u      2.983s      1.868w    108 calls
DFH: AO-Met. Contraction            :     55.183u      1.550s      2.137w    216 calls
DFH: wAO Construction               :    167.617u      0.717s      6.318w    108 calls
DFH: wAO Copy                       :     23.767u      0.533s      0.920w    108 calls

--------------------------------------------------------------------------------------
V: Grid                             :    390.483u     12.183s     16.704w    120 calls
| build grid                        :    218.617u      5.533s      8.708w    120 calls
| post-process grid                 :    171.117u      6.600s      7.970w    120 calls
DFH: sparsity prep                  :     14.267u      0.717s      9.118w    120 calls
| Libint2ERI::Libint2ERI            :      9.500u      0.650s      6.149w    120 calls
Libint2ERI::Libint2ERI              :     15.167u      0.350s      9.190w   1080 calls
Libint2ErfERI::Libint2ErfERI        :      7.883u      0.217s      4.886w     60 calls
JK: (A|Q)^-1                        :    334.600u     52.533s     24.863w     60 calls
| Libint2ERI::Libint2ERI            :      0.267u      1.200s      0.434w    960 calls
JK: (A|mn)                          :    180.033u      0.700s      6.810w     60 calls
JK: (Q|mn)                          :    865.383u     21.217s     33.300w     60 calls
JK: (Q|mn) Write                    :    158.200u     18.600s      7.580w     60 calls
JK: (A|mn)^L                        :    182.300u      1.533s      6.926w     60 calls
JK: (Q|mn)^L                        :    847.817u     19.367s     32.576w     60 calls
JK: (Q|mn)^L Write                  :    154.817u     18.100s      7.393w     60 calls
JK: (Q|mn)^R                        :   1139.383u     40.317s     44.361w     60 calls
JK: (Q|mn)^R Write                  :    226.017u     35.850s     16.714w     60 calls
HF: Form core H                     :     68.200u      2.100s      2.696w    120 calls
HF: Form S/X                        :     72.083u      2.067s      2.788w    120 calls
HF: Guess                           :    290.200u     37.483s     12.497w    120 calls
| SAD Guess                         :    285.667u     37.117s     12.314w    120 calls
HF: Form G                          :  30988.517u    988.333s   1301.404w   1073 calls
| RV: Form V                        :  20423.550u     77.567s    769.763w   1073 calls
| | Properties                      :   5561.944p                         2032209 calls
| | Functional                      :    157.820p                         2032209 calls
| | V_xc                            :   6483.816p                         2032209 calls
| JK: D                             :      4.817u      0.383s      0.227w   1073 calls
| JK: USO2AO                        :      2.950u      0.167s      0.102w   1073 calls
| JK: JK                            :  10540.267u    909.233s    530.653w   1073 calls
| | JK: (Q|mn) Read                 :    560.533u    100.950s     48.999w   1128 calls
| | JK: J                           :    221.000u      8.283s     19.413w   1128 calls
| | | JK: J1                        :    105.700u      4.200s      8.931w   1128 calls
| | | JK: J2                        :    101.783u      3.250s      9.664w   1128 calls
| | JK: K                           :   1335.250u     24.833s     51.680w   1128 calls
| | | JK: K1                        :    922.417u     21.783s     36.104w   1128 calls
| | | JK: K2                        :    406.500u      2.750s     15.451w   1128 calls
| | JK: (Q|mn)^L Read               :    855.850u    109.317s     48.086w   1692 calls
| | JK: (Q|mn)^R Read               :    889.950u    115.250s     48.872w   1692 calls
| | JK: wK                          :   2172.467u     42.317s     83.728w   1692 calls
| | | JK: wK1                       :   1746.100u     38.383s     67.868w   3384 calls
| | | JK: wK2                       :    410.667u      3.233s     15.668w   1692 calls
| | DFH: compute_JK()               :    100.217u     11.500s      4.213w    509 calls
| | | DFH: Grabbing AOs             :      0.000u      0.000s      0.001w    509 calls
| | | DFH: compute_J                :     17.250u      9.850s      1.022w    509 calls
| | | DFH: compute_K                :     67.917u      0.483s      2.616w    509 calls
| | DFH: compute_wK()               :    190.133u     19.667s      7.882w    509 calls
| JK: AO2USO                        :      0.050u      0.000s      0.004w   1073 calls
HF: Form F                          :      5.117u      0.433s      0.216w   1073 calls
HF: Form D                          :      8.817u      0.300s      0.370w   1073 calls
HF: DIIS                            :    434.783u     31.850s     17.573w    953 calls
HF: Form C                          :    570.583u     12.900s     21.908w    953 calls
DFH: initialize()                   :    587.633u     45.083s     25.441w     60 calls
| Libint2ERI::Libint2ERI            :     25.350u      1.167s      1.293w   1020 calls
| Libint2ErfERI::Libint2ErfERI      :     26.400u      0.933s      1.045w     60 calls
| DFH: AO Construction              :     46.483u      2.983s      1.868w    108 calls
| DFH: AO-Met. Contraction          :     55.183u      1.550s      2.137w    216 calls
| DFH: wAO Construction             :    167.617u      0.717s      6.318w    108 calls
| DFH: wAO Copy                     :     23.767u      0.533s      0.920w    108 calls

**************************************************************************************
